 Entering Link 1 = C:\G09W\l1.exe PID=     13032.
  
 Copyright (c) 1988,1990,1992,1993,1995,1998,2003,2009,2010,
            Gaussian, Inc.  All Rights Reserved.
  
 This is part of the Gaussian(R) 09 program.  It is based on
 the Gaussian(R) 03 system (copyright 2003, Gaussian, Inc.),
 the Gaussian(R) 98 system (copyright 1998, Gaussian, Inc.),
 the Gaussian(R) 94 system (copyright 1995, Gaussian, Inc.),
 the Gaussian 92(TM) system (copyright 1992, Gaussian, Inc.),
 the Gaussian 90(TM) system (copyright 1990, Gaussian, Inc.),
 the Gaussian 88(TM) system (copyright 1988, Gaussian, Inc.),
 the Gaussian 86(TM) system (copyright 1986, Carnegie Mellon
 University), and the Gaussian 82(TM) system (copyright 1983,
 Carnegie Mellon University). Gaussian is a federally registered
 trademark of Gaussian, Inc.
  
 This software contains proprietary and confidential information,
 including trade secrets, belonging to Gaussian, Inc.
  
 This software is provided under written license and may be
 used, copied, transmitted, or stored only in accord with that
 written license.
  
 The following legend is applicable only to US Government
 contracts under FAR:
  
                    RESTRICTED RIGHTS LEGEND
  
 Use, reproduction and disclosure by the US Government is
 subject to restrictions as set forth in subparagraphs (a)
 and (c) of the Commercial Computer Software - Restricted
 Rights clause in FAR 52.227-19.
  
 Gaussian, Inc.
 340 Quinnipiac St., Bldg. 40, Wallingford CT 06492
  
  
 ---------------------------------------------------------------
 Warning -- This program may not be used in any manner that
 competes with the business of Gaussian, Inc. or will provide
 assistance to any competitor of Gaussian, Inc.  The licensee
 of this program is prohibited from giving any competitor of
 Gaussian, Inc. access to this program.  By using this program,
 the user acknowledges that Gaussian, Inc. is engaged in the
 business of creating and licensing software in the field of
 computational chemistry and represents and warrants to the
 licensee that it is not a competitor of Gaussian, Inc. and that
 it will not use this program in any manner prohibited above.
 ---------------------------------------------------------------
  

 Cite this work as:
 Gaussian 09, Revision B.01,
 M. J. Frisch, G. W. Trucks, H. B. Schlegel, G. E. Scuseria, 
 M. A. Robb, J. R. Cheeseman, G. Scalmani, V. Barone, B. Mennucci, 
 G. A. Petersson, H. Nakatsuji, M. Caricato, X. Li, H. P. Hratchian, 
 A. F. Izmaylov, J. Bloino, G. Zheng, J. L. Sonnenberg, M. Hada, 
 M. Ehara, K. Toyota, R. Fukuda, J. Hasegawa, M. Ishida, T. Nakajima, 
 Y. Honda, O. Kitao, H. Nakai, T. Vreven, J. A. Montgomery, Jr., 
 J. E. Peralta, F. Ogliaro, M. Bearpark, J. J. Heyd, E. Brothers, 
 K. N. Kudin, V. N. Staroverov, T. Keith, R. Kobayashi, J. Normand, 
 K. Raghavachari, A. Rendell, J. C. Burant, S. S. Iyengar, J. Tomasi, 
 M. Cossi, N. Rega, J. M. Millam, M. Klene, J. E. Knox, J. B. Cross, 
 V. Bakken, C. Adamo, J. Jaramillo, R. Gomperts, R. E. Stratmann, 
 O. Yazyev, A. J. Austin, R. Cammi, C. Pomelli, J. W. Ochterski, 
 R. L. Martin, K. Morokuma, V. G. Zakrzewski, G. A. Voth, 
 P. Salvador, J. J. Dannenberg, S. Dapprich, A. D. Daniels, 
 O. Farkas, J. B. Foresman, J. V. Ortiz, J. Cioslowski, 
 and D. J. Fox, Gaussian, Inc., Wallingford CT, 2010.
 
 ******************************************
 Gaussian 09:  IA32W-G09RevB.01 12-Aug-2010
                30-Sep-2023 
 ******************************************
 %nproc=4
 Will use up to    4 processors via shared memory.
 %mem=1600MB
 -----------------------
 # b3lyp/6-31G* opt freq
 -----------------------
 1/14=-1,18=20,19=15,26=3,38=1/1,3;
 2/9=110,12=2,17=6,18=5,40=1/2;
 3/5=1,6=6,7=1,11=2,16=1,25=1,30=1,71=1,74=-5/1,2,3;
 4//1;
 5/5=2,38=5/2;
 6/7=2,8=2,9=2,10=2,28=1/1;
 7//1,2,3,16;
 1/14=-1,18=20,19=15/3(2);
 2/9=110/2;
 99//99;
 2/9=110/2;
 3/5=1,6=6,7=1,11=2,16=1,25=1,30=1,71=1,74=-5/1,2,3;
 4/5=5,16=3/1;
 5/5=2,38=5/2;
 7//1,2,3,16;
 1/14=-1,18=20,19=15/3(-5);
 2/9=110/2;
 6/7=2,8=2,9=2,10=2,19=2,28=1/1;
 99/9=1/99;
 ---
 C60
 ---
 Symbolic Z-matrix:
 Charge =  0 Multiplicity = 1
 C                     0.        1.2363    3.3275 
 C                    -1.1758    0.382     3.3275 
 C                    -0.7267   -1.0002    3.3275 
 C                     0.7267   -1.0002    3.3275 
 C                     1.1758    0.382     3.3275 
 C                     2.3047    0.7489    2.5939 
 C                     3.0314   -0.2513    1.8298 
 C                     2.6002   -1.5785    1.8298 
 C                     1.4244   -1.9605    2.5939 
 C                     0.6977   -2.9607    1.8298 
 C                    -0.6977   -2.9607    1.8298 
 C                    -1.4244   -1.9605    2.5939 
 C                    -2.6002   -1.5785    1.8298 
 C                    -3.0314   -0.2513    1.8298 
 C                    -2.3047    0.7489    2.5939 
 C                    -2.3047    1.9852    1.8298 
 C                    -3.0314    1.749     0.5935 
 C                    -3.4805    0.3668    0.5935 
 C                    -3.4805   -0.3668   -0.5935 
 C                    -3.0314   -1.749    -0.5935 
 C                    -2.6002   -2.3426    0.5935 
 C                    -1.4244   -3.1968    0.5935 
 C                    -0.7267   -3.4235   -0.5935 
 C                     0.7267   -3.4235   -0.5935 
 C                     1.4244   -3.1968    0.5935 
 C                     2.6002   -2.3426    0.5935 
 C                     3.0314   -1.749    -0.5935 
 C                     3.4805   -0.3668   -0.5935 
 C                     3.4805    0.3668    0.5935 
 C                     3.0314    1.749     0.5935 
 C                     2.6002    2.3426   -0.5935 
 C                     2.6002    1.5785   -1.8298 
 C                     3.0314    0.2513   -1.8298 
 C                     2.3047   -0.7489   -2.5939 
 C                     2.3047   -1.9852   -1.8298 
 C                     1.1758   -2.8054   -1.8298 
 C                     0.       -2.4234   -2.5939 
 C                    -1.1758   -2.8054   -1.8298 
 C                    -2.3047   -1.9852   -1.8298 
 C                    -2.3047   -0.7489   -2.5939 
 C                    -3.0314    0.2513   -1.8298 
 C                    -2.6002    1.5785   -1.8298 
 C                    -2.6002    2.3426   -0.5935 
 C                    -1.4244    3.1968   -0.5935 
 C                    -0.6977    2.9607   -1.8298 
 C                    -1.4244    1.9605   -2.5939 
 C                    -0.7267    1.0002   -3.3275 
 C                    -1.1758   -0.382    -3.3275 
 C                     0.       -1.2363   -3.3275 
 C                     1.1758   -0.382    -3.3275 
 C                     0.7267    1.0002   -3.3275 
 C                     1.4244    1.9605   -2.5939 
 C                     0.6977    2.9607   -1.8298 
 C                     1.4244    3.1968   -0.5935 
 C                     0.7267    3.4235    0.5935 
 C                    -0.7267    3.4235    0.5935 
 C                    -1.1758    2.8054    1.8298 
 C                     0.        2.4234    2.5939 
 C                     1.1758    2.8054    1.8298 
 C                     2.3047    1.9852    1.8298 
 

 GradGradGradGradGradGradGradGradGradGradGradGradGradGradGradGradGradGrad
 Berny optimization.
 Initialization pass.
                           ----------------------------
                           !    Initial Parameters    !
                           ! (Angstroms and Degrees)  !
 --------------------------                            --------------------------
 ! Name  Definition              Value          Derivative Info.                !
 --------------------------------------------------------------------------------
 ! R1    R(1,2)                  1.4534         estimate D2E/DX2                !
 ! R2    R(1,5)                  1.4534         estimate D2E/DX2                !
 ! R3    R(1,58)                 1.3955         estimate D2E/DX2                !
 ! R4    R(2,3)                  1.4533         estimate D2E/DX2                !
 ! R5    R(2,15)                 1.3954         estimate D2E/DX2                !
 ! R6    R(3,4)                  1.4534         estimate D2E/DX2                !
 ! R7    R(3,12)                 1.3954         estimate D2E/DX2                !
 ! R8    R(4,5)                  1.4533         estimate D2E/DX2                !
 ! R9    R(4,9)                  1.3954         estimate D2E/DX2                !
 ! R10   R(5,6)                  1.3954         estimate D2E/DX2                !
 ! R11   R(6,7)                  1.4534         estimate D2E/DX2                !
 ! R12   R(6,60)                 1.4534         estimate D2E/DX2                !
 ! R13   R(7,8)                  1.3955         estimate D2E/DX2                !
 ! R14   R(7,29)                 1.4533         estimate D2E/DX2                !
 ! R15   R(8,9)                  1.4534         estimate D2E/DX2                !
 ! R16   R(8,26)                 1.4534         estimate D2E/DX2                !
 ! R17   R(9,10)                 1.4534         estimate D2E/DX2                !
 ! R18   R(10,11)                1.3954         estimate D2E/DX2                !
 ! R19   R(10,25)                1.4534         estimate D2E/DX2                !
 ! R20   R(11,12)                1.4534         estimate D2E/DX2                !
 ! R21   R(11,22)                1.4534         estimate D2E/DX2                !
 ! R22   R(12,13)                1.4534         estimate D2E/DX2                !
 ! R23   R(13,14)                1.3955         estimate D2E/DX2                !
 ! R24   R(13,21)                1.4534         estimate D2E/DX2                !
 ! R25   R(14,15)                1.4534         estimate D2E/DX2                !
 ! R26   R(14,18)                1.4533         estimate D2E/DX2                !
 ! R27   R(15,16)                1.4534         estimate D2E/DX2                !
 ! R28   R(16,17)                1.4534         estimate D2E/DX2                !
 ! R29   R(16,57)                1.3954         estimate D2E/DX2                !
 ! R30   R(17,18)                1.4533         estimate D2E/DX2                !
 ! R31   R(17,43)                1.3954         estimate D2E/DX2                !
 ! R32   R(18,19)                1.3954         estimate D2E/DX2                !
 ! R33   R(19,20)                1.4533         estimate D2E/DX2                !
 ! R34   R(19,41)                1.4533         estimate D2E/DX2                !
 ! R35   R(20,21)                1.3954         estimate D2E/DX2                !
 ! R36   R(20,39)                1.4534         estimate D2E/DX2                !
 ! R37   R(21,22)                1.4533         estimate D2E/DX2                !
 ! R38   R(22,23)                1.3954         estimate D2E/DX2                !
 ! R39   R(23,24)                1.4534         estimate D2E/DX2                !
 ! R40   R(23,38)                1.4533         estimate D2E/DX2                !
 ! R41   R(24,25)                1.3954         estimate D2E/DX2                !
 ! R42   R(24,36)                1.4533         estimate D2E/DX2                !
 ! R43   R(25,26)                1.4533         estimate D2E/DX2                !
 ! R44   R(26,27)                1.3954         estimate D2E/DX2                !
 ! R45   R(27,28)                1.4533         estimate D2E/DX2                !
 ! R46   R(27,35)                1.4534         estimate D2E/DX2                !
 ! R47   R(28,29)                1.3954         estimate D2E/DX2                !
 ! R48   R(28,33)                1.4533         estimate D2E/DX2                !
 ! R49   R(29,30)                1.4533         estimate D2E/DX2                !
 ! R50   R(30,31)                1.3954         estimate D2E/DX2                !
 ! R51   R(30,60)                1.4534         estimate D2E/DX2                !
 ! R52   R(31,32)                1.4534         estimate D2E/DX2                !
 ! R53   R(31,54)                1.4533         estimate D2E/DX2                !
 ! R54   R(32,33)                1.3955         estimate D2E/DX2                !
 ! R55   R(32,52)                1.4534         estimate D2E/DX2                !
 ! R56   R(33,34)                1.4534         estimate D2E/DX2                !
 ! R57   R(34,35)                1.4534         estimate D2E/DX2                !
 ! R58   R(34,50)                1.3954         estimate D2E/DX2                !
 ! R59   R(35,36)                1.3954         estimate D2E/DX2                !
 ! R60   R(36,37)                1.4534         estimate D2E/DX2                !
 ! R61   R(37,38)                1.4534         estimate D2E/DX2                !
 ! R62   R(37,49)                1.3955         estimate D2E/DX2                !
 ! R63   R(38,39)                1.3954         estimate D2E/DX2                !
 ! R64   R(39,40)                1.4534         estimate D2E/DX2                !
 ! R65   R(40,41)                1.4534         estimate D2E/DX2                !
 ! R66   R(40,48)                1.3954         estimate D2E/DX2                !
 ! R67   R(41,42)                1.3955         estimate D2E/DX2                !
 ! R68   R(42,43)                1.4534         estimate D2E/DX2                !
 ! R69   R(42,46)                1.4534         estimate D2E/DX2                !
 ! R70   R(43,44)                1.4533         estimate D2E/DX2                !
 ! R71   R(44,45)                1.4534         estimate D2E/DX2                !
 ! R72   R(44,56)                1.3954         estimate D2E/DX2                !
 ! R73   R(45,46)                1.4534         estimate D2E/DX2                !
 ! R74   R(45,53)                1.3954         estimate D2E/DX2                !
 ! R75   R(46,47)                1.3954         estimate D2E/DX2                !
 ! R76   R(47,48)                1.4533         estimate D2E/DX2                !
 ! R77   R(47,51)                1.4534         estimate D2E/DX2                !
 ! R78   R(48,49)                1.4534         estimate D2E/DX2                !
 ! R79   R(49,50)                1.4534         estimate D2E/DX2                !
 ! R80   R(50,51)                1.4533         estimate D2E/DX2                !
 ! R81   R(51,52)                1.3954         estimate D2E/DX2                !
 ! R82   R(52,53)                1.4534         estimate D2E/DX2                !
 ! R83   R(53,54)                1.4534         estimate D2E/DX2                !
 ! R84   R(54,55)                1.3954         estimate D2E/DX2                !
 ! R85   R(55,56)                1.4534         estimate D2E/DX2                !
 ! R86   R(55,59)                1.4533         estimate D2E/DX2                !
 ! R87   R(56,57)                1.4533         estimate D2E/DX2                !
 ! R88   R(57,58)                1.4534         estimate D2E/DX2                !
 ! R89   R(58,59)                1.4534         estimate D2E/DX2                !
 ! R90   R(59,60)                1.3954         estimate D2E/DX2                !
 ! A1    A(2,1,5)              107.998          estimate D2E/DX2                !
 ! A2    A(2,1,58)             120.0016         estimate D2E/DX2                !
 ! A3    A(5,1,58)             120.0016         estimate D2E/DX2                !
 ! A4    A(1,2,3)              108.0011         estimate D2E/DX2                !
 ! A5    A(1,2,15)             119.9959         estimate D2E/DX2                !
 ! A6    A(3,2,15)             120.0037         estimate D2E/DX2                !
 ! A7    A(2,3,4)              107.9998         estimate D2E/DX2                !
 ! A8    A(2,3,12)             120.0001         estimate D2E/DX2                !
 ! A9    A(4,3,12)             120.0001         estimate D2E/DX2                !
 ! A10   A(3,4,5)              107.9998         estimate D2E/DX2                !
 ! A11   A(3,4,9)              120.0001         estimate D2E/DX2                !
 ! A12   A(5,4,9)              120.0001         estimate D2E/DX2                !
 ! A13   A(1,5,4)              108.0011         estimate D2E/DX2                !
 ! A14   A(1,5,6)              119.9959         estimate D2E/DX2                !
 ! A15   A(4,5,6)              120.0037         estimate D2E/DX2                !
 ! A16   A(5,6,7)              119.9966         estimate D2E/DX2                !
 ! A17   A(5,6,60)             120.0036         estimate D2E/DX2                !
 ! A18   A(7,6,60)             107.9988         estimate D2E/DX2                !
 ! A19   A(6,7,8)              120.0005         estimate D2E/DX2                !
 ! A20   A(6,7,29)             108.002          estimate D2E/DX2                !
 ! A21   A(8,7,29)             119.998          estimate D2E/DX2                !
 ! A22   A(7,8,9)              119.9972         estimate D2E/DX2                !
 ! A23   A(7,8,26)             120.001          estimate D2E/DX2                !
 ! A24   A(9,8,26)             108.0011         estimate D2E/DX2                !
 ! A25   A(4,9,8)              120.0017         estimate D2E/DX2                !
 ! A26   A(4,9,10)             119.9997         estimate D2E/DX2                !
 ! A27   A(8,9,10)             107.9983         estimate D2E/DX2                !
 ! A28   A(9,10,11)            120.0002         estimate D2E/DX2                !
 ! A29   A(9,10,25)            107.9992         estimate D2E/DX2                !
 ! A30   A(11,10,25)           120.0008         estimate D2E/DX2                !
 ! A31   A(10,11,12)           120.0002         estimate D2E/DX2                !
 ! A32   A(10,11,22)           120.0008         estimate D2E/DX2                !
 ! A33   A(12,11,22)           107.9992         estimate D2E/DX2                !
 ! A34   A(3,12,11)            119.9997         estimate D2E/DX2                !
 ! A35   A(3,12,13)            120.0017         estimate D2E/DX2                !
 ! A36   A(11,12,13)           107.9983         estimate D2E/DX2                !
 ! A37   A(12,13,14)           119.9972         estimate D2E/DX2                !
 ! A38   A(12,13,21)           108.0011         estimate D2E/DX2                !
 ! A39   A(14,13,21)           120.001          estimate D2E/DX2                !
 ! A40   A(13,14,15)           120.0005         estimate D2E/DX2                !
 ! A41   A(13,14,18)           119.998          estimate D2E/DX2                !
 ! A42   A(15,14,18)           108.002          estimate D2E/DX2                !
 ! A43   A(2,15,14)            119.9966         estimate D2E/DX2                !
 ! A44   A(2,15,16)            120.0036         estimate D2E/DX2                !
 ! A45   A(14,15,16)           107.9988         estimate D2E/DX2                !
 ! A46   A(15,16,17)           107.9973         estimate D2E/DX2                !
 ! A47   A(15,16,57)           119.9999         estimate D2E/DX2                !
 ! A48   A(17,16,57)           120.0025         estimate D2E/DX2                !
 ! A49   A(16,17,18)           108.0033         estimate D2E/DX2                !
 ! A50   A(16,17,43)           119.9958         estimate D2E/DX2                !
 ! A51   A(18,17,43)           120.0035         estimate D2E/DX2                !
 ! A52   A(14,18,17)           107.9986         estimate D2E/DX2                !
 ! A53   A(14,18,19)           120.002          estimate D2E/DX2                !
 ! A54   A(17,18,19)           119.9998         estimate D2E/DX2                !
 ! A55   A(18,19,20)           119.9998         estimate D2E/DX2                !
 ! A56   A(18,19,41)           120.002          estimate D2E/DX2                !
 ! A57   A(20,19,41)           107.9986         estimate D2E/DX2                !
 ! A58   A(19,20,21)           120.0035         estimate D2E/DX2                !
 ! A59   A(19,20,39)           108.0033         estimate D2E/DX2                !
 ! A60   A(21,20,39)           119.9958         estimate D2E/DX2                !
 ! A61   A(13,21,20)           119.9958         estimate D2E/DX2                !
 ! A62   A(13,21,22)           107.9995         estimate D2E/DX2                !
 ! A63   A(20,21,22)           120.0013         estimate D2E/DX2                !
 ! A64   A(11,22,21)           108.0019         estimate D2E/DX2                !
 ! A65   A(11,22,23)           119.9993         estimate D2E/DX2                !
 ! A66   A(21,22,23)           120.0005         estimate D2E/DX2                !
 ! A67   A(22,23,24)           119.9999         estimate D2E/DX2                !
 ! A68   A(22,23,38)           120.0012         estimate D2E/DX2                !
 ! A69   A(24,23,38)           107.9998         estimate D2E/DX2                !
 ! A70   A(23,24,25)           119.9999         estimate D2E/DX2                !
 ! A71   A(23,24,36)           107.9998         estimate D2E/DX2                !
 ! A72   A(25,24,36)           120.0012         estimate D2E/DX2                !
 ! A73   A(10,25,24)           119.9993         estimate D2E/DX2                !
 ! A74   A(10,25,26)           108.0019         estimate D2E/DX2                !
 ! A75   A(24,25,26)           120.0005         estimate D2E/DX2                !
 ! A76   A(8,26,25)            107.9995         estimate D2E/DX2                !
 ! A77   A(8,26,27)            119.9958         estimate D2E/DX2                !
 ! A78   A(25,26,27)           120.0013         estimate D2E/DX2                !
 ! A79   A(26,27,28)           120.0035         estimate D2E/DX2                !
 ! A80   A(26,27,35)           119.9958         estimate D2E/DX2                !
 ! A81   A(28,27,35)           108.0033         estimate D2E/DX2                !
 ! A82   A(27,28,29)           119.9998         estimate D2E/DX2                !
 ! A83   A(27,28,33)           107.9986         estimate D2E/DX2                !
 ! A84   A(29,28,33)           120.002          estimate D2E/DX2                !
 ! A85   A(7,29,28)            120.002          estimate D2E/DX2                !
 ! A86   A(7,29,30)            107.9986         estimate D2E/DX2                !
 ! A87   A(28,29,30)           119.9998         estimate D2E/DX2                !
 ! A88   A(29,30,31)           120.0035         estimate D2E/DX2                !
 ! A89   A(29,30,60)           108.0033         estimate D2E/DX2                !
 ! A90   A(31,30,60)           119.9958         estimate D2E/DX2                !
 ! A91   A(30,31,32)           119.9958         estimate D2E/DX2                !
 ! A92   A(30,31,54)           120.0013         estimate D2E/DX2                !
 ! A93   A(32,31,54)           107.9995         estimate D2E/DX2                !
 ! A94   A(31,32,33)           120.001          estimate D2E/DX2                !
 ! A95   A(31,32,52)           108.0011         estimate D2E/DX2                !
 ! A96   A(33,32,52)           119.9972         estimate D2E/DX2                !
 ! A97   A(28,33,32)           119.998          estimate D2E/DX2                !
 ! A98   A(28,33,34)           108.002          estimate D2E/DX2                !
 ! A99   A(32,33,34)           120.0005         estimate D2E/DX2                !
 ! A100  A(33,34,35)           107.9988         estimate D2E/DX2                !
 ! A101  A(33,34,50)           119.9966         estimate D2E/DX2                !
 ! A102  A(35,34,50)           120.0036         estimate D2E/DX2                !
 ! A103  A(27,35,34)           107.9973         estimate D2E/DX2                !
 ! A104  A(27,35,36)           120.0025         estimate D2E/DX2                !
 ! A105  A(34,35,36)           119.9999         estimate D2E/DX2                !
 ! A106  A(24,36,35)           119.9988         estimate D2E/DX2                !
 ! A107  A(24,36,37)           108.0001         estimate D2E/DX2                !
 ! A108  A(35,36,37)           120.0009         estimate D2E/DX2                !
 ! A109  A(36,37,38)           108.0001         estimate D2E/DX2                !
 ! A110  A(36,37,49)           119.998          estimate D2E/DX2                !
 ! A111  A(38,37,49)           119.998          estimate D2E/DX2                !
 ! A112  A(23,38,37)           108.0001         estimate D2E/DX2                !
 ! A113  A(23,38,39)           119.9988         estimate D2E/DX2                !
 ! A114  A(37,38,39)           120.0009         estimate D2E/DX2                !
 ! A115  A(20,39,38)           120.0025         estimate D2E/DX2                !
 ! A116  A(20,39,40)           107.9973         estimate D2E/DX2                !
 ! A117  A(38,39,40)           119.9999         estimate D2E/DX2                !
 ! A118  A(39,40,41)           107.9988         estimate D2E/DX2                !
 ! A119  A(39,40,48)           120.0036         estimate D2E/DX2                !
 ! A120  A(41,40,48)           119.9966         estimate D2E/DX2                !
 ! A121  A(19,41,40)           108.002          estimate D2E/DX2                !
 ! A122  A(19,41,42)           119.998          estimate D2E/DX2                !
 ! A123  A(40,41,42)           120.0005         estimate D2E/DX2                !
 ! A124  A(41,42,43)           120.001          estimate D2E/DX2                !
 ! A125  A(41,42,46)           119.9972         estimate D2E/DX2                !
 ! A126  A(43,42,46)           108.0011         estimate D2E/DX2                !
 ! A127  A(17,43,42)           119.9958         estimate D2E/DX2                !
 ! A128  A(17,43,44)           120.0013         estimate D2E/DX2                !
 ! A129  A(42,43,44)           107.9995         estimate D2E/DX2                !
 ! A130  A(43,44,45)           108.0019         estimate D2E/DX2                !
 ! A131  A(43,44,56)           120.0005         estimate D2E/DX2                !
 ! A132  A(45,44,56)           119.9993         estimate D2E/DX2                !
 ! A133  A(44,45,46)           107.9992         estimate D2E/DX2                !
 ! A134  A(44,45,53)           120.0008         estimate D2E/DX2                !
 ! A135  A(46,45,53)           120.0002         estimate D2E/DX2                !
 ! A136  A(42,46,45)           107.9983         estimate D2E/DX2                !
 ! A137  A(42,46,47)           120.0017         estimate D2E/DX2                !
 ! A138  A(45,46,47)           119.9997         estimate D2E/DX2                !
 ! A139  A(46,47,48)           120.0001         estimate D2E/DX2                !
 ! A140  A(46,47,51)           120.0001         estimate D2E/DX2                !
 ! A141  A(48,47,51)           107.9998         estimate D2E/DX2                !
 ! A142  A(40,48,47)           120.0037         estimate D2E/DX2                !
 ! A143  A(40,48,49)           119.9959         estimate D2E/DX2                !
 ! A144  A(47,48,49)           108.0011         estimate D2E/DX2                !
 ! A145  A(37,49,48)           120.0016         estimate D2E/DX2                !
 ! A146  A(37,49,50)           120.0016         estimate D2E/DX2                !
 ! A147  A(48,49,50)           107.998          estimate D2E/DX2                !
 ! A148  A(34,50,49)           119.9959         estimate D2E/DX2                !
 ! A149  A(34,50,51)           120.0037         estimate D2E/DX2                !
 ! A150  A(49,50,51)           108.0011         estimate D2E/DX2                !
 ! A151  A(47,51,50)           107.9998         estimate D2E/DX2                !
 ! A152  A(47,51,52)           120.0001         estimate D2E/DX2                !
 ! A153  A(50,51,52)           120.0001         estimate D2E/DX2                !
 ! A154  A(32,52,51)           120.0017         estimate D2E/DX2                !
 ! A155  A(32,52,53)           107.9983         estimate D2E/DX2                !
 ! A156  A(51,52,53)           119.9997         estimate D2E/DX2                !
 ! A157  A(45,53,52)           120.0002         estimate D2E/DX2                !
 ! A158  A(45,53,54)           120.0008         estimate D2E/DX2                !
 ! A159  A(52,53,54)           107.9992         estimate D2E/DX2                !
 ! A160  A(31,54,53)           108.0019         estimate D2E/DX2                !
 ! A161  A(31,54,55)           120.0005         estimate D2E/DX2                !
 ! A162  A(53,54,55)           119.9993         estimate D2E/DX2                !
 ! A163  A(54,55,56)           119.9999         estimate D2E/DX2                !
 ! A164  A(54,55,59)           120.0012         estimate D2E/DX2                !
 ! A165  A(56,55,59)           107.9998         estimate D2E/DX2                !
 ! A166  A(44,56,55)           119.9999         estimate D2E/DX2                !
 ! A167  A(44,56,57)           120.0012         estimate D2E/DX2                !
 ! A168  A(55,56,57)           107.9998         estimate D2E/DX2                !
 ! A169  A(16,57,56)           119.9988         estimate D2E/DX2                !
 ! A170  A(16,57,58)           120.0009         estimate D2E/DX2                !
 ! A171  A(56,57,58)           108.0001         estimate D2E/DX2                !
 ! A172  A(1,58,57)            119.998          estimate D2E/DX2                !
 ! A173  A(1,58,59)            119.998          estimate D2E/DX2                !
 ! A174  A(57,58,59)           108.0001         estimate D2E/DX2                !
 ! A175  A(55,59,58)           108.0001         estimate D2E/DX2                !
 ! A176  A(55,59,60)           119.9988         estimate D2E/DX2                !
 ! A177  A(58,59,60)           120.0009         estimate D2E/DX2                !
 ! A178  A(6,60,30)            107.9973         estimate D2E/DX2                !
 ! A179  A(6,60,59)            119.9999         estimate D2E/DX2                !
 ! A180  A(30,60,59)           120.0025         estimate D2E/DX2                !
 ! D1    D(5,1,2,3)              0.0            estimate D2E/DX2                !
 ! D2    D(5,1,2,15)          -142.6254         estimate D2E/DX2                !
 ! D3    D(58,1,2,3)           142.6248         estimate D2E/DX2                !
 ! D4    D(58,1,2,15)           -0.0006         estimate D2E/DX2                !
 ! D5    D(2,1,5,4)              0.0            estimate D2E/DX2                !
 ! D6    D(2,1,5,6)            142.6254         estimate D2E/DX2                !
 ! D7    D(58,1,5,4)          -142.6248         estimate D2E/DX2                !
 ! D8    D(58,1,5,6)             0.0006         estimate D2E/DX2                !
 ! D9    D(2,1,58,57)           -0.0035         estimate D2E/DX2                !
 ! D10   D(2,1,58,59)         -138.1874         estimate D2E/DX2                !
 ! D11   D(5,1,58,57)          138.1874         estimate D2E/DX2                !
 ! D12   D(5,1,58,59)            0.0035         estimate D2E/DX2                !
 ! D13   D(1,2,3,4)              0.0            estimate D2E/DX2                !
 ! D14   D(1,2,3,12)          -142.6228         estimate D2E/DX2                !
 ! D15   D(15,2,3,4)           142.622          estimate D2E/DX2                !
 ! D16   D(15,2,3,12)           -0.0008         estimate D2E/DX2                !
 ! D17   D(1,2,15,14)          138.1917         estimate D2E/DX2                !
 ! D18   D(1,2,15,16)            0.004          estimate D2E/DX2                !
 ! D19   D(3,2,15,14)            0.0004         estimate D2E/DX2                !
 ! D20   D(3,2,15,16)         -138.1873         estimate D2E/DX2                !
 ! D21   D(2,3,4,5)              0.0            estimate D2E/DX2                !
 ! D22   D(2,3,4,9)           -142.6228         estimate D2E/DX2                !
 ! D23   D(12,3,4,5)           142.6228         estimate D2E/DX2                !
 ! D24   D(12,3,4,9)             0.0            estimate D2E/DX2                !
 ! D25   D(2,3,12,11)          138.189          estimate D2E/DX2                !
 ! D26   D(2,3,12,13)            0.0004         estimate D2E/DX2                !
 ! D27   D(4,3,12,11)           -0.0007         estimate D2E/DX2                !
 ! D28   D(4,3,12,13)         -138.1893         estimate D2E/DX2                !
 ! D29   D(3,4,5,1)              0.0            estimate D2E/DX2                !
 ! D30   D(3,4,5,6)           -142.622          estimate D2E/DX2                !
 ! D31   D(9,4,5,1)            142.6228         estimate D2E/DX2                !
 ! D32   D(9,4,5,6)              0.0008         estimate D2E/DX2                !
 ! D33   D(3,4,9,8)            138.1893         estimate D2E/DX2                !
 ! D34   D(3,4,9,10)             0.0007         estimate D2E/DX2                !
 ! D35   D(5,4,9,8)             -0.0004         estimate D2E/DX2                !
 ! D36   D(5,4,9,10)          -138.189          estimate D2E/DX2                !
 ! D37   D(1,5,6,7)           -138.1917         estimate D2E/DX2                !
 ! D38   D(1,5,6,60)            -0.004          estimate D2E/DX2                !
 ! D39   D(4,5,6,7)             -0.0004         estimate D2E/DX2                !
 ! D40   D(4,5,6,60)           138.1873         estimate D2E/DX2                !
 ! D41   D(5,6,7,8)             -0.0004         estimate D2E/DX2                !
 ! D42   D(5,6,7,29)           142.6222         estimate D2E/DX2                !
 ! D43   D(60,6,7,8)          -142.6233         estimate D2E/DX2                !
 ! D44   D(60,6,7,29)           -0.0006         estimate D2E/DX2                !
 ! D45   D(5,6,60,30)         -142.6196         estimate D2E/DX2                !
 ! D46   D(5,6,60,59)            0.0035         estimate D2E/DX2                !
 ! D47   D(7,6,60,30)            0.0001         estimate D2E/DX2                !
 ! D48   D(7,6,60,59)          142.6232         estimate D2E/DX2                !
 ! D49   D(6,7,8,9)              0.0008         estimate D2E/DX2                !
 ! D50   D(6,7,8,26)           138.19           estimate D2E/DX2                !
 ! D51   D(29,7,8,9)          -138.1905         estimate D2E/DX2                !
 ! D52   D(29,7,8,26)           -0.0013         estimate D2E/DX2                !
 ! D53   D(6,7,29,28)         -142.622          estimate D2E/DX2                !
 ! D54   D(6,7,29,30)            0.0009         estimate D2E/DX2                !
 ! D55   D(8,7,29,28)            0.0017         estimate D2E/DX2                !
 ! D56   D(8,7,29,30)          142.6246         estimate D2E/DX2                !
 ! D57   D(7,8,9,4)             -0.0004         estimate D2E/DX2                !
 ! D58   D(7,8,9,10)           142.6216         estimate D2E/DX2                !
 ! D59   D(26,8,9,4)          -142.6228         estimate D2E/DX2                !
 ! D60   D(26,8,9,10)           -0.0007         estimate D2E/DX2                !
 ! D61   D(7,8,26,25)         -142.619          estimate D2E/DX2                !
 ! D62   D(7,8,26,27)           -0.0004         estimate D2E/DX2                !
 ! D63   D(9,8,26,25)            0.0016         estimate D2E/DX2                !
 ! D64   D(9,8,26,27)          142.6203         estimate D2E/DX2                !
 ! D65   D(4,9,10,11)           -0.0007         estimate D2E/DX2                !
 ! D66   D(4,9,10,25)          142.6225         estimate D2E/DX2                !
 ! D67   D(8,9,10,11)         -142.6236         estimate D2E/DX2                !
 ! D68   D(8,9,10,25)           -0.0004         estimate D2E/DX2                !
 ! D69   D(9,10,11,12)           0.0            estimate D2E/DX2                !
 ! D70   D(9,10,11,22)         138.1897         estimate D2E/DX2                !
 ! D71   D(25,10,11,12)       -138.1897         estimate D2E/DX2                !
 ! D72   D(25,10,11,22)          0.0            estimate D2E/DX2                !
 ! D73   D(9,10,25,24)        -142.6236         estimate D2E/DX2                !
 ! D74   D(9,10,25,26)           0.0015         estimate D2E/DX2                !
 ! D75   D(11,10,25,24)         -0.0007         estimate D2E/DX2                !
 ! D76   D(11,10,25,26)        142.6244         estimate D2E/DX2                !
 ! D77   D(10,11,12,3)           0.0007         estimate D2E/DX2                !
 ! D78   D(10,11,12,13)        142.6236         estimate D2E/DX2                !
 ! D79   D(22,11,12,3)        -142.6225         estimate D2E/DX2                !
 ! D80   D(22,11,12,13)          0.0004         estimate D2E/DX2                !
 ! D81   D(10,11,22,21)       -142.6244         estimate D2E/DX2                !
 ! D82   D(10,11,22,23)          0.0007         estimate D2E/DX2                !
 ! D83   D(12,11,22,21)         -0.0015         estimate D2E/DX2                !
 ! D84   D(12,11,22,23)        142.6236         estimate D2E/DX2                !
 ! D85   D(3,12,13,14)           0.0004         estimate D2E/DX2                !
 ! D86   D(3,12,13,21)         142.6228         estimate D2E/DX2                !
 ! D87   D(11,12,13,14)       -142.6216         estimate D2E/DX2                !
 ! D88   D(11,12,13,21)          0.0007         estimate D2E/DX2                !
 ! D89   D(12,13,14,15)         -0.0008         estimate D2E/DX2                !
 ! D90   D(12,13,14,18)        138.1905         estimate D2E/DX2                !
 ! D91   D(21,13,14,15)       -138.19           estimate D2E/DX2                !
 ! D92   D(21,13,14,18)          0.0013         estimate D2E/DX2                !
 ! D93   D(12,13,21,20)       -142.6203         estimate D2E/DX2                !
 ! D94   D(12,13,21,22)         -0.0016         estimate D2E/DX2                !
 ! D95   D(14,13,21,20)          0.0004         estimate D2E/DX2                !
 ! D96   D(14,13,21,22)        142.619          estimate D2E/DX2                !
 ! D97   D(13,14,15,2)           0.0004         estimate D2E/DX2                !
 ! D98   D(13,14,15,16)        142.6233         estimate D2E/DX2                !
 ! D99   D(18,14,15,2)        -142.6222         estimate D2E/DX2                !
 ! D100  D(18,14,15,16)          0.0006         estimate D2E/DX2                !
 ! D101  D(13,14,18,17)       -142.6246         estimate D2E/DX2                !
 ! D102  D(13,14,18,19)         -0.0017         estimate D2E/DX2                !
 ! D103  D(15,14,18,17)         -0.0009         estimate D2E/DX2                !
 ! D104  D(15,14,18,19)        142.622          estimate D2E/DX2                !
 ! D105  D(2,15,16,17)         142.6196         estimate D2E/DX2                !
 ! D106  D(2,15,16,57)          -0.0035         estimate D2E/DX2                !
 ! D107  D(14,15,16,17)         -0.0001         estimate D2E/DX2                !
 ! D108  D(14,15,16,57)       -142.6232         estimate D2E/DX2                !
 ! D109  D(15,16,17,18)         -0.0004         estimate D2E/DX2                !
 ! D110  D(15,16,17,43)       -142.6282         estimate D2E/DX2                !
 ! D111  D(57,16,17,18)        142.6215         estimate D2E/DX2                !
 ! D112  D(57,16,17,43)         -0.0062         estimate D2E/DX2                !
 ! D113  D(15,16,57,56)        138.189          estimate D2E/DX2                !
 ! D114  D(15,16,57,58)         -0.0006         estimate D2E/DX2                !
 ! D115  D(17,16,57,56)          0.0009         estimate D2E/DX2                !
 ! D116  D(17,16,57,58)       -138.1887         estimate D2E/DX2                !
 ! D117  D(16,17,18,14)          0.0008         estimate D2E/DX2                !
 ! D118  D(16,17,18,19)       -142.623          estimate D2E/DX2                !
 ! D119  D(43,17,18,14)        142.6252         estimate D2E/DX2                !
 ! D120  D(43,17,18,19)          0.0013         estimate D2E/DX2                !
 ! D121  D(16,17,43,42)        138.1931         estimate D2E/DX2                !
 ! D122  D(16,17,43,44)          0.009          estimate D2E/DX2                !
 ! D123  D(18,17,43,42)         -0.0017         estimate D2E/DX2                !
 ! D124  D(18,17,43,44)       -138.1859         estimate D2E/DX2                !
 ! D125  D(14,18,19,20)          0.0004         estimate D2E/DX2                !
 ! D126  D(14,18,19,41)       -138.1893         estimate D2E/DX2                !
 ! D127  D(17,18,19,20)        138.1901         estimate D2E/DX2                !
 ! D128  D(17,18,19,41)          0.0004         estimate D2E/DX2                !
 ! D129  D(18,19,20,21)          0.0013         estimate D2E/DX2                !
 ! D130  D(18,19,20,39)       -142.623          estimate D2E/DX2                !
 ! D131  D(41,19,20,21)        142.6252         estimate D2E/DX2                !
 ! D132  D(41,19,20,39)          0.0008         estimate D2E/DX2                !
 ! D133  D(18,19,41,40)        142.622          estimate D2E/DX2                !
 ! D134  D(18,19,41,42)         -0.0017         estimate D2E/DX2                !
 ! D135  D(20,19,41,40)         -0.0009         estimate D2E/DX2                !
 ! D136  D(20,19,41,42)       -142.6246         estimate D2E/DX2                !
 ! D137  D(19,20,21,13)         -0.0017         estimate D2E/DX2                !
 ! D138  D(19,20,21,22)       -138.1859         estimate D2E/DX2                !
 ! D139  D(39,20,21,13)        138.1931         estimate D2E/DX2                !
 ! D140  D(39,20,21,22)          0.009          estimate D2E/DX2                !
 ! D141  D(19,20,39,38)        142.6215         estimate D2E/DX2                !
 ! D142  D(19,20,39,40)         -0.0004         estimate D2E/DX2                !
 ! D143  D(21,20,39,38)         -0.0062         estimate D2E/DX2                !
 ! D144  D(21,20,39,40)       -142.6282         estimate D2E/DX2                !
 ! D145  D(13,21,22,11)          0.0019         estimate D2E/DX2                !
 ! D146  D(13,21,22,23)       -142.6226         estimate D2E/DX2                !
 ! D147  D(20,21,22,11)        142.6181         estimate D2E/DX2                !
 ! D148  D(20,21,22,23)         -0.0065         estimate D2E/DX2                !
 ! D149  D(11,22,23,24)         -0.0007         estimate D2E/DX2                !
 ! D150  D(11,22,23,38)       -138.1917         estimate D2E/DX2                !
 ! D151  D(21,22,23,24)        138.1922         estimate D2E/DX2                !
 ! D152  D(21,22,23,38)          0.0011         estimate D2E/DX2                !
 ! D153  D(22,23,24,25)          0.0            estimate D2E/DX2                !
 ! D154  D(22,23,24,36)       -142.6243         estimate D2E/DX2                !
 ! D155  D(38,23,24,25)        142.6243         estimate D2E/DX2                !
 ! D156  D(38,23,24,36)          0.0            estimate D2E/DX2                !
 ! D157  D(22,23,38,37)        142.6245         estimate D2E/DX2                !
 ! D158  D(22,23,38,39)          0.0016         estimate D2E/DX2                !
 ! D159  D(24,23,38,37)          0.0007         estimate D2E/DX2                !
 ! D160  D(24,23,38,39)       -142.6222         estimate D2E/DX2                !
 ! D161  D(23,24,25,10)          0.0007         estimate D2E/DX2                !
 ! D162  D(23,24,25,26)       -138.1922         estimate D2E/DX2                !
 ! D163  D(36,24,25,10)        138.1917         estimate D2E/DX2                !
 ! D164  D(36,24,25,26)         -0.0011         estimate D2E/DX2                !
 ! D165  D(23,24,36,35)        142.6222         estimate D2E/DX2                !
 ! D166  D(23,24,36,37)         -0.0007         estimate D2E/DX2                !
 ! D167  D(25,24,36,35)         -0.0016         estimate D2E/DX2                !
 ! D168  D(25,24,36,37)       -142.6245         estimate D2E/DX2                !
 ! D169  D(10,25,26,8)          -0.0019         estimate D2E/DX2                !
 ! D170  D(10,25,26,27)       -142.6181         estimate D2E/DX2                !
 ! D171  D(24,25,26,8)         142.6226         estimate D2E/DX2                !
 ! D172  D(24,25,26,27)          0.0065         estimate D2E/DX2                !
 ! D173  D(8,26,27,28)           0.0017         estimate D2E/DX2                !
 ! D174  D(8,26,27,35)        -138.1931         estimate D2E/DX2                !
 ! D175  D(25,26,27,28)        138.1859         estimate D2E/DX2                !
 ! D176  D(25,26,27,35)         -0.009          estimate D2E/DX2                !
 ! D177  D(26,27,28,29)         -0.0013         estimate D2E/DX2                !
 ! D178  D(26,27,28,33)       -142.6252         estimate D2E/DX2                !
 ! D179  D(35,27,28,29)        142.623          estimate D2E/DX2                !
 ! D180  D(35,27,28,33)         -0.0008         estimate D2E/DX2                !
 ! D181  D(26,27,35,34)        142.6282         estimate D2E/DX2                !
 ! D182  D(26,27,35,36)          0.0062         estimate D2E/DX2                !
 ! D183  D(28,27,35,34)          0.0004         estimate D2E/DX2                !
 ! D184  D(28,27,35,36)       -142.6215         estimate D2E/DX2                !
 ! D185  D(27,28,29,7)          -0.0004         estimate D2E/DX2                !
 ! D186  D(27,28,29,30)       -138.1901         estimate D2E/DX2                !
 ! D187  D(33,28,29,7)         138.1893         estimate D2E/DX2                !
 ! D188  D(33,28,29,30)         -0.0004         estimate D2E/DX2                !
 ! D189  D(27,28,33,32)        142.6246         estimate D2E/DX2                !
 ! D190  D(27,28,33,34)          0.0009         estimate D2E/DX2                !
 ! D191  D(29,28,33,32)          0.0017         estimate D2E/DX2                !
 ! D192  D(29,28,33,34)       -142.622          estimate D2E/DX2                !
 ! D193  D(7,29,30,31)        -142.6252         estimate D2E/DX2                !
 ! D194  D(7,29,30,60)          -0.0008         estimate D2E/DX2                !
 ! D195  D(28,29,30,31)         -0.0013         estimate D2E/DX2                !
 ! D196  D(28,29,30,60)        142.623          estimate D2E/DX2                !
 ! D197  D(29,30,31,32)          0.0017         estimate D2E/DX2                !
 ! D198  D(29,30,31,54)        138.1859         estimate D2E/DX2                !
 ! D199  D(60,30,31,32)       -138.1931         estimate D2E/DX2                !
 ! D200  D(60,30,31,54)         -0.009          estimate D2E/DX2                !
 ! D201  D(29,30,60,6)           0.0004         estimate D2E/DX2                !
 ! D202  D(29,30,60,59)       -142.6215         estimate D2E/DX2                !
 ! D203  D(31,30,60,6)         142.6282         estimate D2E/DX2                !
 ! D204  D(31,30,60,59)          0.0062         estimate D2E/DX2                !
 ! D205  D(30,31,32,33)         -0.0004         estimate D2E/DX2                !
 ! D206  D(30,31,32,52)        142.6203         estimate D2E/DX2                !
 ! D207  D(54,31,32,33)       -142.619          estimate D2E/DX2                !
 ! D208  D(54,31,32,52)          0.0016         estimate D2E/DX2                !
 ! D209  D(30,31,54,53)       -142.6181         estimate D2E/DX2                !
 ! D210  D(30,31,54,55)          0.0065         estimate D2E/DX2                !
 ! D211  D(32,31,54,53)         -0.0019         estimate D2E/DX2                !
 ! D212  D(32,31,54,55)        142.6226         estimate D2E/DX2                !
 ! D213  D(31,32,33,28)         -0.0013         estimate D2E/DX2                !
 ! D214  D(31,32,33,34)        138.19           estimate D2E/DX2                !
 ! D215  D(52,32,33,28)       -138.1905         estimate D2E/DX2                !
 ! D216  D(52,32,33,34)          0.0008         estimate D2E/DX2                !
 ! D217  D(31,32,52,51)       -142.6228         estimate D2E/DX2                !
 ! D218  D(31,32,52,53)         -0.0007         estimate D2E/DX2                !
 ! D219  D(33,32,52,51)         -0.0004         estimate D2E/DX2                !
 ! D220  D(33,32,52,53)        142.6216         estimate D2E/DX2                !
 ! D221  D(28,33,34,35)         -0.0006         estimate D2E/DX2                !
 ! D222  D(28,33,34,50)        142.6222         estimate D2E/DX2                !
 ! D223  D(32,33,34,35)       -142.6233         estimate D2E/DX2                !
 ! D224  D(32,33,34,50)         -0.0004         estimate D2E/DX2                !
 ! D225  D(33,34,35,27)          0.0001         estimate D2E/DX2                !
 ! D226  D(33,34,35,36)        142.6232         estimate D2E/DX2                !
 ! D227  D(50,34,35,27)       -142.6196         estimate D2E/DX2                !
 ! D228  D(50,34,35,36)          0.0035         estimate D2E/DX2                !
 ! D229  D(33,34,50,49)       -138.1917         estimate D2E/DX2                !
 ! D230  D(33,34,50,51)         -0.0004         estimate D2E/DX2                !
 ! D231  D(35,34,50,49)         -0.004          estimate D2E/DX2                !
 ! D232  D(35,34,50,51)        138.1873         estimate D2E/DX2                !
 ! D233  D(27,35,36,24)         -0.0009         estimate D2E/DX2                !
 ! D234  D(27,35,36,37)        138.1887         estimate D2E/DX2                !
 ! D235  D(34,35,36,24)       -138.189          estimate D2E/DX2                !
 ! D236  D(34,35,36,37)          0.0006         estimate D2E/DX2                !
 ! D237  D(24,36,37,38)          0.0011         estimate D2E/DX2                !
 ! D238  D(24,36,37,49)        142.618          estimate D2E/DX2                !
 ! D239  D(35,36,37,38)       -142.6209         estimate D2E/DX2                !
 ! D240  D(35,36,37,49)         -0.004          estimate D2E/DX2                !
 ! D241  D(36,37,38,23)         -0.0011         estimate D2E/DX2                !
 ! D242  D(36,37,38,39)        142.6209         estimate D2E/DX2                !
 ! D243  D(49,37,38,23)       -142.618          estimate D2E/DX2                !
 ! D244  D(49,37,38,39)          0.004          estimate D2E/DX2                !
 ! D245  D(36,37,49,48)       -138.1874         estimate D2E/DX2                !
 ! D246  D(36,37,49,50)          0.0035         estimate D2E/DX2                !
 ! D247  D(38,37,49,48)         -0.0035         estimate D2E/DX2                !
 ! D248  D(38,37,49,50)        138.1874         estimate D2E/DX2                !
 ! D249  D(23,38,39,20)          0.0009         estimate D2E/DX2                !
 ! D250  D(23,38,39,40)        138.189          estimate D2E/DX2                !
 ! D251  D(37,38,39,20)       -138.1887         estimate D2E/DX2                !
 ! D252  D(37,38,39,40)         -0.0006         estimate D2E/DX2                !
 ! D253  D(20,39,40,41)         -0.0001         estimate D2E/DX2                !
 ! D254  D(20,39,40,48)        142.6196         estimate D2E/DX2                !
 ! D255  D(38,39,40,41)       -142.6232         estimate D2E/DX2                !
 ! D256  D(38,39,40,48)         -0.0035         estimate D2E/DX2                !
 ! D257  D(39,40,41,19)          0.0006         estimate D2E/DX2                !
 ! D258  D(39,40,41,42)        142.6233         estimate D2E/DX2                !
 ! D259  D(48,40,41,19)       -142.6222         estimate D2E/DX2                !
 ! D260  D(48,40,41,42)          0.0004         estimate D2E/DX2                !
 ! D261  D(39,40,48,47)       -138.1873         estimate D2E/DX2                !
 ! D262  D(39,40,48,49)          0.004          estimate D2E/DX2                !
 ! D263  D(41,40,48,47)          0.0004         estimate D2E/DX2                !
 ! D264  D(41,40,48,49)        138.1917         estimate D2E/DX2                !
 ! D265  D(19,41,42,43)          0.0013         estimate D2E/DX2                !
 ! D266  D(19,41,42,46)        138.1905         estimate D2E/DX2                !
 ! D267  D(40,41,42,43)       -138.19           estimate D2E/DX2                !
 ! D268  D(40,41,42,46)         -0.0008         estimate D2E/DX2                !
 ! D269  D(41,42,43,17)          0.0004         estimate D2E/DX2                !
 ! D270  D(41,42,43,44)        142.619          estimate D2E/DX2                !
 ! D271  D(46,42,43,17)       -142.6203         estimate D2E/DX2                !
 ! D272  D(46,42,43,44)         -0.0016         estimate D2E/DX2                !
 ! D273  D(41,42,46,45)       -142.6216         estimate D2E/DX2                !
 ! D274  D(41,42,46,47)          0.0004         estimate D2E/DX2                !
 ! D275  D(43,42,46,45)          0.0007         estimate D2E/DX2                !
 ! D276  D(43,42,46,47)        142.6228         estimate D2E/DX2                !
 ! D277  D(17,43,44,45)        142.6181         estimate D2E/DX2                !
 ! D278  D(17,43,44,56)         -0.0065         estimate D2E/DX2                !
 ! D279  D(42,43,44,45)          0.0019         estimate D2E/DX2                !
 ! D280  D(42,43,44,56)       -142.6226         estimate D2E/DX2                !
 ! D281  D(43,44,45,46)         -0.0015         estimate D2E/DX2                !
 ! D282  D(43,44,45,53)       -142.6244         estimate D2E/DX2                !
 ! D283  D(56,44,45,46)        142.6236         estimate D2E/DX2                !
 ! D284  D(56,44,45,53)          0.0007         estimate D2E/DX2                !
 ! D285  D(43,44,56,55)        138.1922         estimate D2E/DX2                !
 ! D286  D(43,44,56,57)          0.0011         estimate D2E/DX2                !
 ! D287  D(45,44,56,55)         -0.0007         estimate D2E/DX2                !
 ! D288  D(45,44,56,57)       -138.1917         estimate D2E/DX2                !
 ! D289  D(44,45,46,42)          0.0004         estimate D2E/DX2                !
 ! D290  D(44,45,46,47)       -142.6225         estimate D2E/DX2                !
 ! D291  D(53,45,46,42)        142.6236         estimate D2E/DX2                !
 ! D292  D(53,45,46,47)          0.0007         estimate D2E/DX2                !
 ! D293  D(44,45,53,52)        138.1897         estimate D2E/DX2                !
 ! D294  D(44,45,53,54)          0.0            estimate D2E/DX2                !
 ! D295  D(46,45,53,52)          0.0            estimate D2E/DX2                !
 ! D296  D(46,45,53,54)       -138.1897         estimate D2E/DX2                !
 ! D297  D(42,46,47,48)          0.0004         estimate D2E/DX2                !
 ! D298  D(42,46,47,51)       -138.1893         estimate D2E/DX2                !
 ! D299  D(45,46,47,48)        138.189          estimate D2E/DX2                !
 ! D300  D(45,46,47,51)         -0.0007         estimate D2E/DX2                !
 ! D301  D(46,47,48,40)         -0.0008         estimate D2E/DX2                !
 ! D302  D(46,47,48,49)       -142.6228         estimate D2E/DX2                !
 ! D303  D(51,47,48,40)        142.622          estimate D2E/DX2                !
 ! D304  D(51,47,48,49)          0.0            estimate D2E/DX2                !
 ! D305  D(46,47,51,50)        142.6228         estimate D2E/DX2                !
 ! D306  D(46,47,51,52)          0.0            estimate D2E/DX2                !
 ! D307  D(48,47,51,50)          0.0            estimate D2E/DX2                !
 ! D308  D(48,47,51,52)       -142.6228         estimate D2E/DX2                !
 ! D309  D(40,48,49,37)         -0.0006         estimate D2E/DX2                !
 ! D310  D(40,48,49,50)       -142.6254         estimate D2E/DX2                !
 ! D311  D(47,48,49,37)        142.6248         estimate D2E/DX2                !
 ! D312  D(47,48,49,50)          0.0            estimate D2E/DX2                !
 ! D313  D(37,49,50,34)          0.0006         estimate D2E/DX2                !
 ! D314  D(37,49,50,51)       -142.6248         estimate D2E/DX2                !
 ! D315  D(48,49,50,34)        142.6254         estimate D2E/DX2                !
 ! D316  D(48,49,50,51)          0.0            estimate D2E/DX2                !
 ! D317  D(34,50,51,47)       -142.622          estimate D2E/DX2                !
 ! D318  D(34,50,51,52)          0.0008         estimate D2E/DX2                !
 ! D319  D(49,50,51,47)          0.0            estimate D2E/DX2                !
 ! D320  D(49,50,51,52)        142.6228         estimate D2E/DX2                !
 ! D321  D(47,51,52,32)        138.1893         estimate D2E/DX2                !
 ! D322  D(47,51,52,53)          0.0007         estimate D2E/DX2                !
 ! D323  D(50,51,52,32)         -0.0004         estimate D2E/DX2                !
 ! D324  D(50,51,52,53)       -138.189          estimate D2E/DX2                !
 ! D325  D(32,52,53,45)       -142.6236         estimate D2E/DX2                !
 ! D326  D(32,52,53,54)         -0.0004         estimate D2E/DX2                !
 ! D327  D(51,52,53,45)         -0.0007         estimate D2E/DX2                !
 ! D328  D(51,52,53,54)        142.6225         estimate D2E/DX2                !
 ! D329  D(45,53,54,31)        142.6244         estimate D2E/DX2                !
 ! D330  D(45,53,54,55)         -0.0007         estimate D2E/DX2                !
 ! D331  D(52,53,54,31)          0.0015         estimate D2E/DX2                !
 ! D332  D(52,53,54,55)       -142.6236         estimate D2E/DX2                !
 ! D333  D(31,54,55,56)       -138.1922         estimate D2E/DX2                !
 ! D334  D(31,54,55,59)         -0.0011         estimate D2E/DX2                !
 ! D335  D(53,54,55,56)          0.0007         estimate D2E/DX2                !
 ! D336  D(53,54,55,59)        138.1917         estimate D2E/DX2                !
 ! D337  D(54,55,56,44)          0.0            estimate D2E/DX2                !
 ! D338  D(54,55,56,57)        142.6243         estimate D2E/DX2                !
 ! D339  D(59,55,56,44)       -142.6243         estimate D2E/DX2                !
 ! D340  D(59,55,56,57)          0.0            estimate D2E/DX2                !
 ! D341  D(54,55,59,58)       -142.6245         estimate D2E/DX2                !
 ! D342  D(54,55,59,60)         -0.0016         estimate D2E/DX2                !
 ! D343  D(56,55,59,58)         -0.0007         estimate D2E/DX2                !
 ! D344  D(56,55,59,60)        142.6222         estimate D2E/DX2                !
 ! D345  D(44,56,57,16)          0.0016         estimate D2E/DX2                !
 ! D346  D(44,56,57,58)        142.6245         estimate D2E/DX2                !
 ! D347  D(55,56,57,16)       -142.6222         estimate D2E/DX2                !
 ! D348  D(55,56,57,58)          0.0007         estimate D2E/DX2                !
 ! D349  D(16,57,58,1)           0.004          estimate D2E/DX2                !
 ! D350  D(16,57,58,59)        142.6209         estimate D2E/DX2                !
 ! D351  D(56,57,58,1)        -142.618          estimate D2E/DX2                !
 ! D352  D(56,57,58,59)         -0.0011         estimate D2E/DX2                !
 ! D353  D(1,58,59,55)         142.618          estimate D2E/DX2                !
 ! D354  D(1,58,59,60)          -0.004          estimate D2E/DX2                !
 ! D355  D(57,58,59,55)          0.0011         estimate D2E/DX2                !
 ! D356  D(57,58,59,60)       -142.6209         estimate D2E/DX2                !
 ! D357  D(55,59,60,6)        -138.189          estimate D2E/DX2                !
 ! D358  D(55,59,60,30)         -0.0009         estimate D2E/DX2                !
 ! D359  D(58,59,60,6)           0.0006         estimate D2E/DX2                !
 ! D360  D(58,59,60,30)        138.1887         estimate D2E/DX2                !
 --------------------------------------------------------------------------------
 Trust Radius=3.00D-01 FncErr=1.00D-07 GrdErr=1.00D-06
 Number of steps in this run=    360 maximum allowed number of steps=    360.
 GradGradGradGradGradGradGradGradGradGradGradGradGradGradGradGradGradGrad

 Stoichiometry    C60
 Framework group  C2H[SGH(C4),X(C56)]
 Deg. of freedom    45
 Full point group                 C2H     NOp   4
 Largest Abelian subgroup         C2H     NOp   4
 Largest concise Abelian subgroup C2H     NOp   4
                         Standard orientation:                         
 ---------------------------------------------------------------------
 Center     Atomic      Atomic             Coordinates (Angstroms)
 Number     Number       Type             X           Y           Z
 ---------------------------------------------------------------------
      1          6           0        3.327500    1.236300    0.000000
      2          6           0        3.327500    0.382000    1.175800
      3          6           0        3.327500   -1.000200    0.726700
      4          6           0        3.327500   -1.000200   -0.726700
      5          6           0        3.327500    0.382000   -1.175800
      6          6           0        2.593900    0.748900   -2.304700
      7          6           0        1.829800   -0.251300   -3.031400
      8          6           0        1.829800   -1.578500   -2.600200
      9          6           0        2.593900   -1.960500   -1.424400
     10          6           0        1.829800   -2.960700   -0.697700
     11          6           0        1.829800   -2.960700    0.697700
     12          6           0        2.593900   -1.960500    1.424400
     13          6           0        1.829800   -1.578500    2.600200
     14          6           0        1.829800   -0.251300    3.031400
     15          6           0        2.593900    0.748900    2.304700
     16          6           0        1.829800    1.985200    2.304700
     17          6           0        0.593500    1.749000    3.031400
     18          6           0        0.593500    0.366800    3.480500
     19          6           0       -0.593500   -0.366800    3.480500
     20          6           0       -0.593500   -1.749000    3.031400
     21          6           0        0.593500   -2.342600    2.600200
     22          6           0        0.593500   -3.196800    1.424400
     23          6           0       -0.593500   -3.423500    0.726700
     24          6           0       -0.593500   -3.423500   -0.726700
     25          6           0        0.593500   -3.196800   -1.424400
     26          6           0        0.593500   -2.342600   -2.600200
     27          6           0       -0.593500   -1.749000   -3.031400
     28          6           0       -0.593500   -0.366800   -3.480500
     29          6           0        0.593500    0.366800   -3.480500
     30          6           0        0.593500    1.749000   -3.031400
     31          6           0       -0.593500    2.342600   -2.600200
     32          6           0       -1.829800    1.578500   -2.600200
     33          6           0       -1.829800    0.251300   -3.031400
     34          6           0       -2.593900   -0.748900   -2.304700
     35          6           0       -1.829800   -1.985200   -2.304700
     36          6           0       -1.829800   -2.805400   -1.175800
     37          6           0       -2.593900   -2.423400    0.000000
     38          6           0       -1.829800   -2.805400    1.175800
     39          6           0       -1.829800   -1.985200    2.304700
     40          6           0       -2.593900   -0.748900    2.304700
     41          6           0       -1.829800    0.251300    3.031400
     42          6           0       -1.829800    1.578500    2.600200
     43          6           0       -0.593500    2.342600    2.600200
     44          6           0       -0.593500    3.196800    1.424400
     45          6           0       -1.829800    2.960700    0.697700
     46          6           0       -2.593900    1.960500    1.424400
     47          6           0       -3.327500    1.000200    0.726700
     48          6           0       -3.327500   -0.382000    1.175800
     49          6           0       -3.327500   -1.236300    0.000000
     50          6           0       -3.327500   -0.382000   -1.175800
     51          6           0       -3.327500    1.000200   -0.726700
     52          6           0       -2.593900    1.960500   -1.424400
     53          6           0       -1.829800    2.960700   -0.697700
     54          6           0       -0.593500    3.196800   -1.424400
     55          6           0        0.593500    3.423500   -0.726700
     56          6           0        0.593500    3.423500    0.726700
     57          6           0        1.829800    2.805400    1.175800
     58          6           0        2.593900    2.423400    0.000000
     59          6           0        1.829800    2.805400   -1.175800
     60          6           0        1.829800    1.985200   -2.304700
 ---------------------------------------------------------------------
 Rotational constants (GHZ):      0.0835565      0.0835561      0.0835558
 Standard basis: 6-31G(d) (6D, 7F)
 There are   232 symmetry adapted basis functions of AG  symmetry.
 There are   218 symmetry adapted basis functions of BG  symmetry.
 There are   218 symmetry adapted basis functions of AU  symmetry.
 There are   232 symmetry adapted basis functions of BU  symmetry.
 Integral buffers will be    262144 words long.
 Raffenetti 2 integral format.
 Two-electron integral symmetry is turned on.
   900 basis functions,  1680 primitive gaussians,   900 cartesian basis functions
   180 alpha electrons      180 beta electrons
       nuclear repulsion energy      8327.2426001970 Hartrees.
 NAtoms=   60 NActive=   60 NUniq=   16 SFac= 4.00D+00 NAtFMM=   50 NAOKFM=T Big=F
 One-electron integrals computed using PRISM.
 NBasis=   900 RedAO= T  NBF=   232   218   218   232
 NBsUse=   900 1.00D-06 NBFU=   232   218   218   232
 Harris functional with IExCor=  402 diagonalized for initial guess.
 ExpMin= 1.69D-01 ExpMax= 3.05D+03 ExpMxC= 4.57D+02 IAcc=1 IRadAn=         1 AccDes= 0.00D+00
 HarFok:  IExCor=  402 AccDes= 0.00D+00 IRadAn=         1 IDoV= 1
 ScaDFX=  1.000000  1.000000  1.000000  1.000000
 FoFCou: FMM=F IPFlag=           0 FMFlag=      100000 FMFlg1=        2000
         NFxFlg=           0 DoJE=T BraDBF=F KetDBF=T FulRan=T
         Omega=  0.000000  0.000000  1.000000  0.000000  0.000000 ICntrl=     500 IOpCl=  0
         NMat0=    1 NMatS0=    1 NMatT0=    0 NMatD0=    1 NMtDS0=    0 NMtDT0=    0
         I1Cent=           4 NGrid=           0.
 Petite list used in FoFCou.
 Initial guess orbital symmetries:
       Occupied  (AG) (BU) (AU) (BU) (AG) (AG) (BG) (AG) (BG) (AU)
                 (AU) (BU) (BU) (AU) (BU) (BU) (BG) (AG) (BG) (AG)
                 (AG) (BG) (BG) (AG) (AG) (AU) (AU) (BU) (AU) (BU)
                 (BU) (AU) (BU) (BG) (AG) (BG) (AG) (BG) (BG) (AG)
                 (AG) (BU) (AU) (BU) (BU) (AU) (AU) (AU) (BU) (BG)
                 (AG) (BG) (AG) (AU) (BU) (AU) (BG) (BU) (BG) (AG)
                 (AG) (BU) (AU) (BU) (BG) (AG) (AG) (BG) (AG) (AU)
                 (BU) (BU) (AU) (AU) (BU) (BU) (BG) (AG) (AG) (BG)
                 (AG) (BG) (AG) (AG) (BG) (AU) (BU) (AU) (AU) (BU)
                 (BU) (AU) (BU) (BU) (BU) (AU) (BG) (AG) (AG) (AG)
                 (BG) (BG) (BG) (AG) (AG) (AG) (BG) (AG) (BG) (AU)
                 (BU) (AU) (BU) (AU) (AU) (BU) (BU) (BU) (BU) (AU)
                 (AU) (BU) (BU) (AU) (BG) (AG) (BG) (AG) (AG) (AG)
                 (BG) (AG) (AG) (BG) (BU) (AU) (BU) (BG) (AG) (BG)
                 (AU) (AU) (BU) (BU) (BG) (AG) (BG) (AG) (AG) (AG)
                 (BG) (AG) (BG) (AG) (AU) (BU) (AU) (BU) (AU) (AU)
                 (BU) (BU) (AU) (AU) (BU) (BU) (AG) (BG) (BG) (AG)
                 (AG) (BG) (AG) (BG) (AG) (BU) (AU) (AU) (AU) (BU)
       Virtual   (BU) (AU) (BU) (BG) (BG) (AG) (AU) (BU) (BU) (BG)
                 (AG) (AG) (AG) (BG) (AU) (BU) (AU) (AU) (BU) (AG)
                 (BG) (AG) (BG) (BU) (AU) (BU) (AU) (AG) (BG) (BG)
                 (BU) (AU) (BU) (AG) (BG) (BG) (AG) (AG) (AG) (BG)
                 (BG) (BU) (AU) (BU) (AU) (BU) (BU) (AU) (AG) (BG)
                 (AG) (BG) (AG) (AG) (AG) (BG) (BG) (AU) (AU) (BU)
                 (AU) (BU) (BU) (AU) (BU) (BU) (BU) (AU) (BG) (AG)
                 (BG) (BU) (AU) (BU) (AU) (AU) (BG) (AG) (BG) (BG)
                 (AG) (BG) (AG) (AG) (AG) (BG) (BG) (AG) (AU) (AU)
                 (BU) (BU) (AG) (BG) (AG) (BG) (AG) (AG) (AG) (BG)
                 (BG) (BU) (AU) (BU) (BU) (AU) (AU) (AU) (BU) (BU)
                 (AU) (AU) (BU) (AU) (BU) (AU) (BU) (BG) (AG) (BG)
                 (AG) (AG) (AU) (BU) (AU) (BU) (BU) (BU) (AU) (AG)
                 (BG) (AG) (BG) (BG) (BG) (AG) (AG) (AG) (BU) (AU)
                 (BU) (AG) (AU) (BU) (BU) (BG) (BG) (AG) (BG) (BG)
                 (AG) (AG) (AG) (BU) (AU) (BU) (AU) (AU) (AU) (AU)
                 (BU) (BU) (BU) (AU) (AU) (AU) (BU) (AG) (BG) (BG)
                 (AG) (BG) (AG) (AG) (BG) (BG) (AG) (BG) (AG) (BG)
                 (BG) (AG) (BU) (AU) (BU) (BU) (AU) (AU) (BU) (AU)
                 (BG) (AG) (AG) (BG) (AU) (AU) (BU) (BU) (BG) (AG)
                 (BG) (BU) (AU) (BU) (BG) (AG) (AG) (AG) (BG) (AU)
                 (BU) (BU) (AU) (BU) (BU) (AU) (BG) (AG) (AG) (AG)
                 (BG) (AG) (AG) (BG) (BG) (BU) (AU) (BU) (AU) (AU)
                 (AG) (BG) (AG) (BG) (AG) (AU) (BU) (BU) (BU) (AU)
                 (BU) (AU) (BU) (AU) (BU) (BG) (AG) (BG) (AG) (AG)
                 (AU) (BU) (BU) (AU) (BU) (BU) (AG) (BG) (BG) (BG)
                 (AG) (BG) (AG) (BG) (AG) (BG) (AG) (AG) (BG) (AG)
                 (BG) (AG) (AU) (BU) (AU) (BU) (AU) (BU) (AU) (BU)
                 (AU) (AU) (BU) (AU) (BU) (AU) (AU) (BU) (BU) (BG)
                 (BG) (AG) (AG) (BG) (AG) (AG) (BG) (AG) (BG) (AG)
                 (BG) (BU) (AU) (BU) (BG) (AG) (BG) (AG) (BG) (BG)
                 (AG) (BU) (AU) (AU) (BU) (BU) (AU) (AU) (AU) (BU)
                 (AU) (BU) (AU) (AU) (BU) (AU) (AU) (BU) (BU) (AU)
                 (AG) (BG) (AG) (AG) (BG) (BG) (AG) (BG) (BG) (AG)
                 (BG) (BU) (AU) (BU) (AG) (BG) (AG) (AG) (BG) (AG)
                 (AG) (BG) (BG) (AU) (BU) (BU) (AG) (BG) (BG) (AG)
                 (BU) (AU) (BU) (AU) (BU) (AU) (AU) (BU) (AU) (AU)
                 (AG) (BG) (BG) (AU) (AU) (BU) (BU) (AU) (BU) (BU)
                 (BU) (BU) (AU) (AG) (AG) (AG) (BG) (BG) (BG) (AG)
                 (BG) (AG) (AG) (BU) (AU) (BU) (BG) (AG) (BG) (AG)
                 (BG) (AG) (AG) (BG) (AG) (AU) (BU) (BU) (AU) (AU)
                 (BG) (BG) (AG) (AG) (AG) (AU) (BU) (BU) (AU) (AU)
                 (BU) (BU) (AU) (BU) (AU) (BU) (BG) (AG) (AG) (AG)
                 (BG) (AU) (BU) (BU) (BU) (AU) (BU) (BG) (BG) (AG)
                 (AG) (BG) (BG) (AG) (AG) (AU) (AU) (BU) (AU) (BU)
                 (BU) (AU) (BU) (AG) (BG) (BG) (AG) (BG) (BG) (AG)
                 (AU) (AU) (BU) (BU) (AG) (BG) (BG) (AG) (AG) (BG)
                 (AG) (AG) (BG) (BU) (AU) (BU) (BU) (BU) (AU) (AU)
                 (AU) (BG) (BG) (AG) (BU) (AU) (BU) (AU) (AU) (BU)
                 (AU) (BU) (AG) (BG) (AG) (AG) (BG) (AG) (BG) (BG)
                 (AG) (AG) (AG) (BG) (BG) (AU) (AU) (BU) (BU) (AG)
                 (BG) (AG) (BG) (BU) (AU) (BU) (AU) (AU) (AU) (BU)
                 (BU) (AU) (AU) (AU) (BU) (BU) (AG) (BG) (AG) (BG)
                 (BU) (AU) (BU) (AU) (AG) (BG) (BG) (AG) (BG) (BG)
                 (AG) (AG) (AU) (BU) (BU) (AU) (BU) (BU) (BG) (AG)
                 (BG) (AU) (BU) (BU) (AU) (AU) (BG) (AG) (BG) (AG)
                 (AG) (AG) (BG) (AG) (AG) (BG) (BG) (BG) (AG) (BU)
                 (BU) (AU) (BU) (AU) (AU) (AU) (BU) (AU) (BU) (BU)
                 (AU) (AG) (BG) (AG) (BG) (BG) (AG) (BG) (AG) (BG)
                 (BG) (AG) (AU) (AU) (BU) (BU) (AU) (BU) (BU) (AU)
                 (BG) (AG) (AG) (BG) (AG) (BG) (AG) (BG) (BU) (BU)
                 (AU) (AU) (AU) (BG) (AG) (BG) (BU) (AU) (BU) (AU)
                 (AU) (BU) (BU) (AU) (AU) (AU) (AG) (BG) (BG) (AG)
                 (BG) (AG) (BG) (BU) (AU) (AU) (BU) (BG) (AG) (AG)
                 (BG) (BG) (BG) (AG) (BU) (AU) (AU) (AU) (BU) (AU)
                 (BU) (AU) (BU) (BG) (AG) (BG) (BG) (BG) (AG) (AU)
                 (AG) (BU) (AU) (BU) (BG) (AG) (BG) (AG) (AG) (AU)
                 (BU) (BU) (AU) (AU) (BU) (BU) (BG) (AG) (AG) (AG)
                 (BG) (AG) (BG) (AG) (BG) (AU) (BU) (BU) (BU) (AU)
                 (BU) (AU) (AU) (BU) (AU) (BU) (BG) (BG) (AG) (AG)
                 (BG) (AG) (BG) (AG) (AG) (BG) (AG) (BG) (BU) (BU)
                 (AU) (AU) (AU) (AU) (BU) (BU) (AU) (BG) (BG) (AG)
 The electronic state of the initial guess is 1-AG.
 Requested convergence on RMS density matrix=1.00D-08 within 128 cycles.
 Requested convergence on MAX density matrix=1.00D-06.
 Requested convergence on             energy=1.00D-06.
 No special actions if energy rises.
 Integral accuracy reduced to 1.0D-05 until final iterations.
 Initial convergence to 1.0D-05 achieved.  Increase integral accuracy.
 SCF Done:  E(RB3LYP) =  -2286.17393172     A.U. after   12 cycles
             Convg  =    0.7625D-08             -V/T =  2.0094

 **********************************************************************

            Population analysis using the SCF density.

 **********************************************************************

 Orbital symmetries:
       Occupied  (AG) (BU) (AU) (BU) (AG) (BG) (AG) (BG) (AG) (BU)
                 (AU) (AU) (BU) (BU) (BU) (AU) (AG) (BG) (AG) (BG)
                 (AG) (AG) (BG) (BG) (AG) (BU) (AU) (AU) (BU) (AU)
                 (BU) (AU) (BU) (AG) (BG) (BG) (AG) (AG) (BG) (AG)
                 (BG) (BU) (BU) (AU) (BU) (AU) (AU) (AU) (BU) (AG)
                 (BG) (AG) (BG) (BU) (AU) (BU) (AG) (BG) (AU) (BG)
                 (AG) (BU) (AU) (BU) (BG) (AG) (AG) (AG) (BG) (BU)
                 (AU) (BU) (AU) (AU) (BU) (BU) (BG) (AG) (AG) (BG)
                 (AG) (BG) (AG) (BG) (AG) (AU) (AU) (BU) (BU) (AU)
                 (BU) (AU) (BU) (AU) (BU) (BU) (AG) (BG) (AG) (BG)
                 (AG) (BG) (BG) (AG) (AG) (BG) (AG) (BG) (AG) (AU)
                 (BU) (BU) (AU) (AU) (BU) (AU) (BU) (AU) (BU) (BU)
                 (AG) (AU) (BU) (BU) (AU) (BU) (AU) (BU) (BG) (AG)
                 (AG) (AG) (BG) (BG) (AG) (BG) (AG) (BG) (AG) (BG)
                 (BG) (AG) (AG) (AG) (BG) (AU) (AU) (BU) (BU) (AG)
                 (BG) (AG) (AG) (BG) (BU) (AU) (BU) (AU) (BU) (AU)
                 (BU) (AU) (AU) (AU) (BU) (BU) (BG) (AG) (BG) (AG)
                 (AG) (BG) (AG) (BG) (AG) (AU) (AU) (BU) (BU) (AU)
       Virtual   (AU) (BU) (BU) (BG) (BG) (AG) (BU) (AU) (BU) (AG)
                 (BG) (AG) (BG) (AG) (BU) (AU) (AU) (AU) (BU) (AG)
                 (BG) (AG) (BG) (AU) (BU) (BU) (AU) (AG) (BG) (BG)
                 (AU) (BU) (BU) (BG) (AG) (AG) (BG) (AG) (BG) (AG)
                 (BG) (BU) (AU) (BU) (AU) (AU) (BU) (BU) (AG) (BG)
                 (AG) (BG) (AG) (BG) (BG) (AG) (AG) (AU) (AU) (AU)
                 (BU) (BU) (BU) (BU) (AU) (AU) (BU) (BU) (BG) (AG)
                 (BG) (BU) (AU) (AU) (AU) (BU) (BG) (AG) (BG) (AG)
                 (AG) (AU) (BU) (AU) (BU) (BG) (BG) (AG) (AG) (AG)
                 (BG) (AG) (BG) (AG) (BU) (AU) (BU) (BG) (AG) (BG)
                 (BG) (AG) (AG) (BG) (AG) (BU) (AU) (BU) (AG) (BG)
                 (AG) (BG) (AU) (BU) (BU) (AU) (BU) (AU) (BU) (AU)
                 (BU) (AU) (AU) (BU) (AG) (BG) (AG) (AG) (BG) (BG)
                 (AG) (AG) (BG) (AG) (BU) (AU) (BU) (AU) (BU) (AU)
                 (AU) (BU) (BU) (AU) (BU) (BG) (AG) (AG) (BG) (AG)
                 (AU) (BU) (AU) (BU) (AU) (BG) (AG) (BG) (AG) (AG)
                 (BG) (BG) (AG) (AU) (BU) (AU) (BU) (BG) (AG) (BG)
                 (AG) (BG) (AG) (BG) (BU) (AU) (BU) (AU) (AU) (AU)
                 (BU) (AU) (BU) (AU) (BU) (BU) (BG) (AG) (BG) (BU)
                 (AU) (BU) (BU) (AU) (BU) (AU) (AU) (BG) (BG) (AG)
                 (AG) (AG) (BG) (BG) (BG) (AG) (AG) (BG) (AG) (BU)
                 (AU) (BU) (AU) (AU) (BU) (BU) (BG) (AG) (AG) (BG)
                 (AG) (AU) (BU) (AU) (AU) (BU) (AG) (BG) (AG) (BG)
                 (BG) (AG) (AG) (BG) (AG) (BU) (BU) (AU) (BU) (AU)
                 (BU) (AU) (AU) (BU) (BU) (BG) (AG) (BG) (AG) (AG)
                 (AU) (BU) (BU) (BG) (AG) (BG) (BU) (AU) (BU) (BG)
                 (AG) (BG) (BG) (BG) (AG) (AG) (BG) (AG) (AG) (BG)
                 (AG) (AG) (AU) (AU) (BU) (AU) (BU) (AU) (BU) (AU)
                 (BU) (AU) (BU) (AU) (BU) (AU) (BG) (AG) (BG) (BU)
                 (AU) (BU) (AG) (BG) (AG) (BG) (AG) (AG) (BG) (AG)
                 (BG) (BU) (AU) (BU) (BG) (BG) (AG) (BG) (AG) (AG)
                 (BG) (AU) (BU) (AU) (BU) (AU) (BU) (AU) (BU) (AU)
                 (BU) (AU) (AU) (BU) (AU) (AU) (BU) (BU) (AU) (AU)
                 (BG) (AG) (AG) (BG) (AG) (BG) (AG) (BG) (BG) (AG)
                 (BG) (AU) (BU) (BU) (BG) (AG) (BG) (AG) (BG) (AG)
                 (AG) (BG) (AG) (BU) (AU) (BU) (BG) (BG) (AG) (AU)
                 (AG) (AU) (BU) (AU) (BU) (BU) (AU) (AU) (BU) (AU)
                 (AG) (BG) (BG) (BU) (AU) (BU) (AU) (BU) (AU) (BU)
                 (BU) (AU) (BU) (AG) (BG) (AG) (AG) (BG) (BG) (AG)
                 (AG) (AG) (BG) (AU) (BU) (BU) (BG) (BG) (AG) (AG)
                 (BG) (AG) (AG) (AG) (BG) (AU) (BU) (AU) (AU) (BU)
                 (AG) (BG) (BG) (AG) (AG) (BU) (AU) (AU) (BU) (AU)
                 (BU) (BU) (BU) (AU) (BU) (AU) (AG) (BG) (BG) (AG)
                 (AG) (BU) (AU) (BU) (AU) (BU) (BU) (BG) (AG) (BG)
                 (BG) (AG) (AG) (BG) (AG) (AU) (AU) (BU) (AU) (BU)
                 (BG) (BG) (AG) (AG) (BU) (AU) (BU) (AU) (BU) (AU)
                 (BU) (BG) (AG) (BG) (BG) (AG) (BG) (AG) (AG) (AG)
                 (BG) (BG) (AG) (BU) (BU) (AU) (AU) (BU) (AU) (BU)
                 (AU) (BG) (AG) (BG) (BU) (AU) (BU) (AU) (AU) (BG)
                 (AG) (BG) (AG) (AG) (BU) (AU) (BU) (BG) (AG) (AG)
                 (BG) (AG) (BG) (AG) (BG) (AG) (AU) (BU) (AU) (BU)
                 (AG) (BG) (BG) (BU) (AU) (AU) (BU) (AU) (AU) (BU)
                 (AU) (AU) (BU) (AU) (BU) (BU) (BG) (BG) (AG) (AG)
                 (AU) (AU) (BU) (BU) (AG) (BG) (BG) (AU) (BU) (BU)
                 (AG) (BG) (AG) (BG) (AG) (BU) (AU) (BU) (BG) (BG)
                 (AG) (AG) (BG) (AG) (BG) (AG) (AU) (BU) (AU) (BU)
                 (AU) (BG) (BG) (AG) (AG) (BG) (BG) (AG) (AG) (AU)
                 (BU) (BU) (BU) (AU) (AU) (AU) (BU) (BU) (AU) (BU)
                 (AU) (BG) (AG) (AG) (BG) (BG) (AG) (BG) (AG) (BG)
                 (BG) (AG) (AU) (BU) (BU) (AU) (AU) (BU) (BU) (AU)
                 (AG) (BG) (AG) (BG) (AG) (AG) (BG) (BG) (AU) (BU)
                 (BU) (AU) (AU) (BG) (BG) (AG) (BU) (AU) (AU) (BU)
                 (AU) (AU) (BU) (AU) (BU) (AU) (AG) (BG) (BG) (AG)
                 (BG) (BG) (AG) (BU) (AU) (BU) (AU) (BG) (BG) (AG)
                 (AG) (AG) (BG) (BG) (AU) (BU) (BU) (AU) (AU) (BU)
                 (AU) (AU) (BU) (BG) (AG) (BG) (AG) (BG) (BG) (AU)
                 (AG) (BU) (AU) (BU) (AG) (BG) (BG) (AG) (AG) (BU)
                 (BU) (AU) (AU) (BU) (AU) (BU) (AG) (BG) (AG) (BG)
                 (AG) (AG) (BG) (BG) (AG) (AU) (BU) (BU) (BU) (AU)
[...]
 ,0.00017830,0.00080431,0.00022827,-0.00047796,-0.00136246,-0.00310183,
 -0.00459520,0.00310215,0.00525944,0.00282377,0.00829934,0.00151451,0.0
 0037568,0.00091157,-0.00103227,-0.00052029,0.00032241,0.00022790,0.000
 37415,0.00000727,-0.00228387,-0.00013561,0.00079665,0.00189412,0.,0.,-
 0.00228387,0.00013561,-0.00079665,0.00022790,-0.00037415,-0.00000727,-
 0.00103227,0.00052029,-0.00032241,0.00151451,-0.00037568,-0.00091157,0
 .00525944,-0.00282377,-0.00829934,0.00721060,-0.00988187,0.02183300,0.
 00721060,0.00988187,-0.02183300,-0.17480879,0.02124207,-0.06532704,0.5
 2311919,0.,-0.24769539,0.12430327,-0.02989409,-0.02993763,0.00053341,-
 0.00349773,0.00893327,0.00209643,0.00349773,0.00893327,0.00209643,0.02
 989409,-0.02993763,0.00053341,-0.00381804,-0.01418220,0.01049597,-0.00
 299116,0.00278205,0.00339218,-0.00274293,-0.00342667,0.00266044,0.0063
 5793,-0.00149472,-0.00334336,-0.00090659,-0.00021323,-0.00064044,0.000
 90659,-0.00021323,-0.00064044,-0.00635794,-0.00149472,-0.00334336,0.00
 274293,-0.00342667,0.00266044,0.00299116,0.00278205,0.00339218,0.00381
 804,-0.01418220,0.01049597,0.00091124,0.01430020,-0.01805055,-0.006490
 39,0.00032291,0.00177432,0.00026068,0.00065022,-0.00155708,0.00017439,
 0.00010661,0.00098920,0.00040599,-0.00123609,-0.00098404,0.00037028,0.
 00031574,0.00026153,-0.00003189,0.00001937,0.00021493,0.00001411,0.000
 05251,-0.00085164,-0.00001411,0.00005251,-0.00085164,0.00003189,0.0000
 1937,0.00021493,-0.00037028,0.00031574,0.00026153,-0.00040599,-0.00123
 609,-0.00098404,-0.00017439,0.00010661,0.00098920,-0.00026068,0.000650
 22,-0.00155708,0.00649039,0.00032291,0.00177432,-0.00233777,0.00095520
 ,-0.00067621,-0.00055916,0.00120653,0.00022903,-0.00087634,-0.00054217
 ,-0.00057079,0.00084006,0.00131079,0.00016103,0.00076153,-0.00002691,0
 .00171215,-0.00029128,-0.00060822,0.00045842,0.,0.00063570,0.00004096,
 0.00029128,-0.00060822,0.00045842,-0.00076153,-0.00002691,0.00171215,-
 0.00084006,0.00131079,0.00016103,0.00087634,-0.00054217,-0.00057079,0.
 00055916,0.00120653,0.00022903,0.00233777,0.00095520,-0.00067621,-0.00
 679063,-0.00013270,-0.00035016,0.00153415,0.00072214,-0.00004643,-0.00
 056829,0.00046447,0.00040525,0.00002757,-0.00049863,0.00002177,0.00039
 229,0.00042698,-0.00002552,0.,-0.00005622,-0.00044387,-0.00039229,0.00
 042698,-0.00002552,-0.00002757,-0.00049863,0.00002177,0.00056829,0.000
 46447,0.00040525,-0.00153415,0.00072214,-0.00004643,0.00679063,-0.0001
 3270,-0.00035016,-0.00966532,-0.00701801,0.02575232,0.00966532,-0.0070
 1801,0.02575232,0.01336155,-0.08137892,0.04155453,0.,0.46337015,0.,0.1
 2965970,-0.11933003,0.02137612,0.01696134,-0.00235268,0.00208441,-0.00
 773677,0.00221111,-0.00208441,-0.00773677,0.00221111,-0.02137612,0.016
 96134,-0.00235268,0.00710697,0.01196414,-0.00714396,0.00017556,-0.0020
 8324,-0.00273324,0.00339937,0.00230356,-0.00167394,-0.00368640,0.00145
 634,0.00264338,0.00054880,0.00047486,0.00024111,-0.00054880,0.00047486
 ,0.00024111,0.00368640,0.00145634,0.00264338,-0.00339937,0.00230356,-0
 .00167394,-0.00017556,-0.00208324,-0.00273324,-0.00710697,0.01196413,-
 0.00714396,-0.01164811,-0.02238555,0.01247420,-0.00360423,0.00274412,0
 .00071481,-0.00085963,-0.00000675,0.00124441,0.00026532,-0.00064750,-0
 .00026611,-0.00097352,0.00089234,0.00066060,-0.00015586,0.00040257,-0.
 00048734,0.00010680,-0.00005373,-0.00047260,-0.00018300,0.00003835,0.0
 0048975,0.00018300,0.00003835,0.00048975,-0.00010680,-0.00005373,-0.00
 047260,0.00015586,0.00040257,-0.00048734,0.00097352,0.00089234,0.00066
 060,-0.00026532,-0.00064750,-0.00026611,0.00085963,-0.00000675,0.00124
 441,0.00360423,0.00274412,0.00071481,0.00057833,-0.00208880,0.00104273
 ,0.00019569,-0.00115584,-0.00053880,0.00028185,0.00068543,0.00090525,-
 0.00070016,-0.00163303,-0.00087414,-0.00092122,0.00040973,-0.00136884,
 0.00050239,0.00019723,-0.00035744,0.,0.00004096,0.00014088,-0.00050239
 ,0.00019723,-0.00035744,0.00092122,0.00040973,-0.00136884,0.00070016,-
 0.00163303,-0.00087414,-0.00028185,0.00068543,0.00090525,-0.00019569,-
 0.00115584,-0.00053880,-0.00057833,-0.00208880,0.00104273,0.00774566,0
 .00540211,0.00150470,-0.00015626,-0.00033436,-0.00112131,0.00049920,-0
 .00013881,-0.00014411,0.00035325,0.00060660,-0.00001569,-0.00038582,-0
 .00059644,0.00055220,0.,-0.00008146,-0.00031623,0.00038582,-0.00059644
 ,0.00055220,-0.00035325,0.00060660,-0.00001569,-0.00049920,-0.00013881
 ,-0.00014411,0.00015626,-0.00033436,-0.00112131,-0.00774566,0.00540211
 ,0.00150470,0.01482404,0.01678028,-0.03940904,-0.01482404,0.01678028,-
 0.03940904,-0.04588959,0.04029908,-0.11072602,0.,-0.25513372,0.4095074
 3,0.02024654,-0.03259360,0.01733780,-0.00112528,0.00044836,0.00130362,
 0.00086942,-0.00024153,0.00147150,-0.00284640,-0.00518153,-0.00153261,
 -0.02357446,0.01051275,0.00837055,0.00327596,0.03523517,-0.02486478,0.
 00634602,-0.00997135,-0.00487104,0.00509989,0.00634334,-0.00393886,-0.
 00630974,0.00064736,0.00410487,-0.00019416,0.00013656,0.00023350,-0.00
 066922,0.00115712,0.00173884,-0.00005220,-0.00102255,-0.00072221,0.000
 49031,0.00080615,0.00139027,-0.00023627,-0.00183130,-0.00060854,0.0025
 9834,-0.00355199,0.00204016,0.00446444,0.01057073,-0.00612820,-0.00045
 443,-0.00072298,-0.00015145,0.00014372,-0.00031642,-0.00051496,-0.0002
 6450,0.00087509,-0.00008146,0.00055783,-0.00094015,0.00114441,0.000105
 74,-0.00142533,-0.00236065,-0.00122557,0.00011961,-0.00172176,-0.00063
 773,-0.00001861,0.00066503,0.00046192,0.00005817,0.00043440,-0.0002143
 3,0.00004175,-0.00024084,-0.00013343,-0.00020005,0.00090830,0.00049880
 ,0.00127438,-0.00013041,0.00065326,0.00043624,0.00522697,0.00330856,-0
 .00857293,0.00238987,-0.02627163,0.01570220,0.02731154,-0.00964853,0.0
 0966286,-0.00489521,-0.00126606,-0.00229680,-0.00286954,-0.00162645,0.
 00288521,-0.00262232,-0.00082351,0.00000750,-0.00074071,-0.00054708,-0
 .00036388,-0.00031851,0.00082838,0.00035494,0.00033635,-0.00070898,0.0
 0029128,-0.00050239,0.00030716,-0.00000925,-0.00034904,0.00013160,0.00
 018738,-0.00054635,0.00040987,-0.00058235,0.00010553,-0.00034967,0.000
 42723,0.00034409,-0.00057426,-0.00066289,0.00061806,-0.00034849,-0.000
 40926,-0.00180791,-0.00499675,-0.00038991,0.00720463,0.00067410,-0.000
 37391,-0.00056110,0.00060448,-0.00099720,-0.00083797,0.00049123,0.0010
 9274,0.00009682,0.00046612,-0.00197031,-0.00026261,-0.00228377,-0.0005
 2065,0.00017877,0.00112667,0.00143479,0.00017457,-0.00053343,-0.000350
 50,-0.00020761,0.00214853,0.00049948,0.00032274,-0.00158672,0.00243619
 ,0.00143358,0.02484084,-0.01097351,0.00559555,-0.10737016,0.02447956,-
 0.01589557,-0.03228139,0.00994353,-0.02909950,-0.05676355,-0.00279044,
 -0.00499514,-0.17480879,-0.01336155,0.04588959,0.61451669,-0.01746527,
 -0.01515743,0.00850875,-0.00097232,-0.00319745,0.00736081,-0.00171363,
 0.00004397,-0.00019489,0.00121903,0.00188957,-0.00101049,0.00287358,-0
 .00146819,0.00244186,0.01265918,-0.02768919,0.00408306,-0.00095835,0.0
 0072971,0.00514096,-0.00149827,-0.00156984,0.00102694,0.00101670,-0.00
 069197,0.00013559,0.00059374,0.00078359,0.00013967,-0.00108421,-0.0005
 7000,-0.00046499,0.00104181,-0.00030636,-0.00005969,0.00034913,0.00009
 917,-0.00049685,-0.00050860,0.00052235,-0.00054310,0.00177026,-0.00095
 981,-0.00047091,0.00154599,0.00259451,0.00359757,0.00033485,0.00142426
 ,-0.00142971,0.00007843,-0.00009182,0.00091066,0.00012771,0.00001073,-
 0.00020510,0.00010927,-0.00005961,0.00087950,-0.00098709,0.00043139,-0
 .00029994,0.00103957,0.00001870,0.00081320,0.00067672,-0.00029408,0.00
 032146,-0.00074564,-0.00026595,-0.00029292,0.00025287,0.00026671,0.000
 13765,-0.00029019,-0.00045298,-0.00099631,-0.00053248,0.00004111,0.000
 64137,0.00010922,0.00093908,-0.00761954,-0.00085071,0.00854499,0.00335
 484,0.01073003,-0.00152526,-0.03048230,0.01481900,-0.01261093,0.004268
 58,0.00061652,0.00203573,0.00478857,0.00312560,-0.00358102,0.00280806,
 -0.00069090,0.00003187,-0.00005377,-0.00011857,-0.00017010,-0.00020909
 ,-0.00035494,-0.00001423,-0.00011500,0.00003961,-0.00060822,0.00019723
 ,-0.00000925,0.00073011,-0.00026603,-0.00012037,0.00015338,-0.00091355
 ,-0.00065905,-0.00034424,0.00100287,0.00018250,-0.00036955,-0.00008970
 ,-0.00012733,0.00051149,0.00031465,-0.00097842,-0.00015566,0.00031419,
 -0.00113112,0.00173616,-0.00653491,-0.00328660,0.00009440,0.00259409,0
 .00004029,0.00083110,0.00082057,-0.00058737,-0.00079846,0.00030919,0.0
 0064602,0.00124620,-0.00054555,0.00077371,0.00077629,0.00014980,0.0004
 8424,-0.00143031,-0.00013036,0.00036707,0.00060168,0.00067672,-0.00066
 132,0.00008653,0.00017926,0.00219505,0.00479136,-0.00296523,-0.0185647
 5,0.00473625,0.01234606,0.03430641,-0.08082182,0.05806635,0.01959079,0
 .00037754,0.00864525,0.00279044,0.00603165,-0.00455387,-0.02124207,-0.
 08137892,0.04029908,-0.16224514,0.34838755,0.00937853,0.02457975,-0.01
 743959,-0.00098660,0.00343632,0.00221257,0.00118399,0.00036725,0.00020
 196,0.00132097,0.00281284,-0.00013519,0.01312264,-0.00711847,-0.003758
 16,-0.01951651,0.00160320,0.01243208,0.00152650,0.00693851,-0.00045517
 ,-0.00258318,-0.00314726,0.00338718,0.00364807,-0.00063689,-0.00167350
 ,-0.00141728,-0.00041662,-0.00047387,0.00167890,-0.00064521,0.00004372
 ,-0.00025278,0.00097550,0.00024118,-0.00027148,0.00002487,-0.00047407,
 0.00070292,0.00041044,0.00060956,-0.00245430,0.00342409,-0.00273455,-0
 .00638449,-0.00303529,-0.00045890,-0.00127256,-0.00098326,0.00014443,-
 0.00011687,0.00077710,-0.00076568,0.00006519,-0.00017272,-0.00002956,0
 .00022269,0.00064938,-0.00180283,0.00078261,-0.00057894,0.00145968,-0.
 00066980,0.00058134,-0.00009660,-0.00041994,-0.00010125,-0.00074291,0.
 00035051,0.00025622,0.00021572,-0.00052287,-0.00053753,-0.00033628,0.0
 0006187,0.00119956,0.00046710,-0.00023053,-0.00086691,-0.00066121,-0.0
 0021150,-0.00047920,0.00532680,0.00436281,-0.00451815,-0.00523361,0.00
 823050,-0.01796675,0.01561577,-0.01082754,0.01486161,-0.00661903,-0.00
 107034,-0.00242862,-0.00187314,-0.00185438,0.00335633,-0.00347186,0.00
 078983,0.00058844,0.00090577,0.00019163,0.00029904,0.00043392,-0.00033
 635,-0.00011500,-0.00040295,0.00080438,0.00045842,-0.00035744,-0.00034
 904,-0.00026603,0.00099551,-0.00070050,-0.00080239,0.00123831,0.001513
 08,0.00087994,-0.00136907,-0.00029945,0.00023660,0.00043385,0.00068560
 ,0.00011046,-0.00064971,-0.00044311,-0.00030695,0.00161523,0.00258425,
 0.00366127,0.00988038,0.00513008,-0.00218578,-0.00187384,-0.00096936,-
 0.00098781,-0.00053774,0.00068911,0.00056465,0.00041835,-0.00187955,-0
 .00137569,0.00028412,0.00023507,-0.00042300,0.00020346,-0.00136123,0.0
 0120826,-0.00089267,0.00071508,-0.00136817,-0.00018996,-0.00070881,0.0
 0057371,-0.00111742,0.00290736,0.00155379,-0.00532225,0.01710920,-0.00
 637735,-0.04170582,-0.03436225,0.05601837,-0.17916814,-0.03135234,0.00
 309013,-0.00734389,0.00499514,-0.00455387,0.01140105,0.06532704,0.0415
 5453,-0.11072603,-0.04753004,-0.14620780,0.43277446,-0.00760246,0.0080
 1650,0.00000514,0.00259519,0.00298614,-0.00048679,0.00069602,-0.001774
 38,-0.00063786,-0.00284179,-0.00154070,0.00659882,0.00327420,-0.023125
 21,0.00260471,-0.07995292,0.00984433,0.02410255,0.00000446,0.02122516,
 -0.00279193,-0.00078818,-0.00015606,0.00531048,-0.00009666,0.00089945,
 -0.00108021,0.00113850,-0.00006359,-0.00032746,-0.00020357,0.00012239,
 -0.00090171,-0.00028949,0.00096371,0.00016638,-0.00060150,-0.00106211,
 -0.00098013,0.00047524,0.00080975,0.00005825,-0.00172591,0.00250718,-0
 .00113766,-0.00236730,-0.00392231,0.00219522,-0.00027874,-0.00033440,-
 0.00122863,0.00013286,0.00036449,0.00020473,0.00000651,-0.00089320,-0.
 00041325,-0.00052081,0.00071474,0.00009957,-0.00044101,0.00129423,0.00
 130539,0.00110870,-0.00066198,0.00044347,0.00024383,0.00000763,0.00048
 245,-0.00031024,0.00011226,-0.00017118,0.00000213,0.00003215,0.0010234
 9,0.00135701,0.00092409,-0.00131352,0.00023342,-0.00079088,0.00085721,
 0.00154353,0.00099996,-0.00843482,-0.01146690,0.02636598,0.01716636,-0
 .10072408,0.03633826,0.06009053,0.01527637,-0.02163661,0.00994321,0.00
 282230,0.00363308,-0.00325599,0.00122752,-0.00310467,0.00264079,0.0010
 8926,0.00019887,0.00104033,0.00063990,0.00026856,0.00010782,-0.0005470
 8,0.00011857,-0.00019163,0.00009296,-0.00076153,0.00092122,0.00013160,
 -0.00012037,-0.00070050,0.00069540,0.00011691,-0.00014507,-0.00071430,
 0.00003827,0.00034278,0.00006612,-0.00060219,-0.00021346,-0.00006417,0
 .00003821,-0.00010128,-0.00013105,-0.00073708,0.00064993,0.00074563,0.
 00013899,-0.00886587,-0.00515959,0.00197479,0.00347916,0.00015129,-0.0
 0037246,0.00017880,-0.00174857,-0.00044954,-0.00017899,0.00041034,0.00
 164846,0.00008760,0.00156040,0.00100200,-0.00043719,-0.00082380,-0.001
 01483,0.00026530,0.00048886,0.00069912,0.00070846,0.00033087,-0.001252
 27,0.00006997,0.00221419,0.00174867,0.00543448,-0.01943325,0.01140654,
 0.00563349,-0.01168053,0.01548080,-0.03739932,0.01080761,0.00159070,0.
 00245729,0.00446444,-0.00154599,0.00638449,-0.03898389,-0.00091124,0.0
 1164811,-0.23493951,0.12187863,0.02103940,0.46841066,0.01547188,-0.017
 48967,0.00894617,-0.00340818,-0.00355886,-0.00177092,-0.00029535,0.000
 21461,0.00133907,-0.00012346,-0.00149106,0.00352754,-0.03797393,0.0020
 3054,0.01913403,0.01769173,-0.17598264,0.05613878,0.01566908,-0.050794
 02,-0.00608858,0.00886359,0.00785566,-0.00471852,-0.00442614,0.0017342
 6,0.00178960,-0.00138332,-0.00085446,-0.00074525,0.00058054,0.00079064
 ,0.00117035,-0.00110141,-0.00007076,-0.00070526,0.00117915,-0.00063896
 ,0.00150914,0.00035381,0.00011394,0.00026522,0.00213802,-0.00528109,0.
 00394614,0.00392231,0.00588985,-0.00343040,-0.00024702,-0.00030895,0.0
 0055445,0.00015522,-0.00008024,-0.00018728,-0.00008969,0.00019062,0.00
 032271,0.00001882,-0.00041170,0.00073136,0.00037453,-0.00076611,-0.001
 38576,-0.00109926,-0.00057294,-0.00233921,-0.00104234,0.00025546,0.001
 36021,0.00086021,0.00005546,-0.00014069,-0.00036268,0.00005050,-0.0002
 0878,-0.00013413,-0.00038927,-0.00058430,-0.00021634,-0.00073783,-0.00
 162483,0.00172984,-0.00480154,0.00483948,0.01664074,-0.02044862,-0.025
 03938,0.02635735,-0.08771146,0.00288544,-0.01410691,0.01427096,0.00914
 587,0.00386516,0.00037722,0.00045465,-0.00019472,-0.00045189,0.0002649
 6,-0.00084000,0.00034669,-0.00054370,-0.00026856,-0.00070248,0.0006861
 3,0.00036388,-0.00017010,0.00029904,-0.00068525,-0.00002691,0.00040973
 ,0.00018738,0.00015338,-0.00080239,0.00011691,0.00034268,-0.00041396,0
 .00028962,-0.00060189,-0.00041685,0.00010754,0.00074789,0.00028427,-0.
 00020563,-0.00065290,-0.00036778,0.00107026,0.00067216,0.00007530,0.00
 047074,0.00084149,0.00261826,0.00173977,-0.00004756,-0.00162471,0.0003
 2478,-0.00094403,-0.00072043,0.00050007,0.00144600,0.00012789,0.000354
 83,-0.00191678,0.00021692,-0.00161473,0.00015189,-0.00041804,0.0006660
 3,0.00051832,0.00018890,-0.00001790,-0.00042082,0.00001407,-0.00009094
 ,0.00190337,0.00036269,-0.00116417,-0.00144418,-0.00124686,0.00644236,
 -0.00273116,-0.00337042,0.02043562,-0.01616556,0.01657529,-0.00612678,
 0.00103985,0.00330642,-0.01057073,0.00259451,-0.00303529,0.02170358,0.
 01430020,-0.02238555,0.12682017,-0.15491575,0.03155099,-0.20967596,0.4
 9469404,-0.01069181,0.01028919,-0.00382359,0.00226610,0.00212598,-0.00
 013660,-0.00001795,0.00123987,0.00020070,0.00358084,0.00013065,0.00220
 322,0.02039591,0.01656452,-0.01745159,0.01941189,0.07510894,-0.1106947
 8,-0.00583841,0.00338235,0.01143001,-0.00092024,-0.00701471,-0.0004514
 2,0.00401583,-0.00126865,-0.00273513,0.00017312,0.00079464,0.00060934,
 0.00010679,-0.00025059,-0.00047509,0.00100703,0.00006114,0.00024144,-0
 .00113303,0.00139876,0.00004378,0.00004192,-0.00147637,-0.00047511,-0.
 00173276,0.00327167,-0.00167466,-0.00219522,-0.00343040,0.00338444,0.0
 0112231,0.00043058,0.00046798,-0.00034888,-0.00066390,-0.00033595,0.00
 013636,0.00041263,0.00021534,0.00003388,-0.00042993,-0.00074306,0.0007
 5965,-0.00045773,-0.00009699,-0.00079226,0.00056643,0.00146023,0.00054
 899,0.00041236,-0.00180324,-0.00018452,0.00000821,-0.00003000,0.000775
 70,0.00012963,-0.00076561,-0.00054455,-0.00151337,0.00014286,-0.000154
 07,-0.00051704,0.00161479,0.00267791,0.00359509,0.00987846,0.01259318,
 -0.02884967,-0.00735607,0.06378984,-0.01525802,-0.17924907,-0.01147568
 ,0.01429658,-0.04169971,0.00057504,0.00323812,-0.00531631,-0.00366059,
 0.00419876,-0.00187383,-0.00064291,-0.00122550,-0.00053869,-0.00010782
 ,0.00068613,-0.00064891,0.00031851,-0.00020909,0.00043392,0.00036984,0
 .00171215,-0.00136884,-0.00054635,-0.00091355,0.00123831,-0.00014507,-
 0.00041396,0.00099523,0.00018776,0.00090666,-0.00035700,-0.00000548,-0
 .00035547,-0.00040253,0.00022646,0.00027484,0.00043392,-0.00075101,-0.
 00048695,-0.00066102,-0.00039187,-0.00034842,0.00532391,0.00377311,-0.
 00073132,-0.00347129,0.00031682,0.00093308,0.00090707,0.00157110,-0.00
 092093,-0.00088991,-0.00047352,0.00009295,0.00020349,-0.00072911,-0.00
 221400,0.00028599,0.00032533,0.00083175,0.00042008,-0.00152241,0.00025
 812,-0.00018671,0.00076625,-0.00049875,-0.00111602,-0.00197342,-0.0017
 6328,-0.00186564,0.01757946,-0.00585868,-0.00670528,-0.01965558,0.0022
 6672,0.01565973,-0.00564969,0.00275349,-0.00522990,0.00612820,0.003597
 57,-0.00045890,0.00752466,-0.01805055,0.01247420,0.02353738,0.02987718
 ,-0.10204948,-0.12435292,-0.09072590,0.43286951||0.,-0.00002353,-0.000
 10315,-0.00005757,-0.00004546,-0.00006694,-0.00005983,-0.00000732,-0.0
 0008199,0.00005983,-0.00000732,-0.00008199,0.00005757,-0.00004546,-0.0
 0006694,-0.00010110,-0.00002021,-0.00003210,-0.00000655,0.00001499,0.0
 0002498,0.00012080,-0.00013373,0.00008320,-0.00010749,0.00004554,0.000
 11117,-0.00003073,-0.00001410,-0.00003989,0.00003073,-0.00001410,-0.00
 003989,0.00010749,0.00004554,0.00011117,-0.00012080,-0.00013373,0.0000
 8320,0.00000655,0.00001499,0.00002498,0.00010110,-0.00002021,-0.000032
 10,-0.00000025,0.00011716,0.00006761,0.00019322,-0.00014366,-0.0001268
 2,-0.00008991,0.00008256,0.00007103,-0.00008991,-0.00008256,-0.0000710
 3,0.00019322,0.00014366,0.00012682,0.00000085,0.00003636,-0.00010494,-
 0.00005066,0.00003487,0.00003999,0.00001115,0.00008403,0.00002905,-0.0
 0001115,0.00008403,0.00002905,0.00005066,0.00003487,0.00003999,-0.0000
 0085,0.00003636,-0.00010494,-0.00019322,0.00014366,0.00012682,0.000089
 91,-0.00008256,-0.00007103,0.00008991,0.00008256,0.00007103,-0.0001932
 2,-0.00014366,-0.00012682,-0.00000085,-0.00003636,0.00010494,0.0001208
 0,0.00013373,-0.00008320,-0.00000655,-0.00001499,-0.00002498,-0.000101
 10,0.00002021,0.00003210,0.00000025,-0.00011716,-0.00006761,-0.0000177
 9,-0.00012084,0.00000280,0.,0.00007850,0.00002654,0.00001779,-0.000120
 84,0.00000280,-0.00000025,-0.00011716,-0.00006761,0.00010110,0.0000202
 1,0.00003210,0.00000655,-0.00001499,-0.00002498,-0.00012080,0.00013373
 ,-0.00008320,0.00000085,-0.00003636,0.00010494,-0.00005066,-0.00003487
 ,-0.00003999,0.00003073,0.00001410,0.00003989,0.00010749,-0.00004554,-
 0.00011117,-0.00005983,0.00000732,0.00008199,-0.00005757,0.00004546,0.
 00006694,0.,0.00002353,0.00010315,0.00005757,0.00004546,0.00006694,0.0
 0005983,0.00000732,0.00008199,-0.00010749,-0.00004554,-0.00011117,-0.0
 0003073,0.00001410,0.00003989,0.00005066,-0.00003487,-0.00003999,-0.00
 001115,-0.00008403,-0.00002905,0.00001115,-0.00008403,-0.00002905,0.00
 001779,0.00012084,-0.00000280,0.,-0.00007850,-0.00002654,-0.00001779,0
 .00012084,-0.00000280,0.00000025,0.00011716,0.00006761|||@


 DON'T WORRY CHARLIE BROWN...WE LEARN MORE FROM LOSING 
 THAN WE DO FROM WINNING.
 THEN THAT MAKES ME THE SMARTEST PERSON IN THE WORLD...
 CHARLES SCHULZ 'PEANUTS'
 Job cpu time:  0 days  7 hours 48 minutes  5.0 seconds.
 File lengths (MBytes):  RWF=   2730 Int=      0 D2E=      0 Chk=     54 Scr=      1
 Normal termination of Gaussian 09 at Sun Oct 01 01:06:27 2023.
